! Touchstone file exported from HFSS 2020.2.4
!        File:           D:/Project/Deacon_v3/240214_MPW12_Gap_WG_Tester_D2A/Gap_WG_Tester_D2.aedt
!        Generated:      11:43:43 AM  Mar 20, 2025
!        Design:         Line
!        Project:        Gap_WG_Tester_D2
!        Setup:          Setup1
!        Solution:       Sweep
!
! Variables:
!        C_G = 8um
!        C_H = 0.5mm
!        Deembedding = 25.4mm
!        E_P = 133um
!        S_H1 = 260um
!        S_H2 = 0.013mm
!        S_H3 = 8um
!        S_X = 30mm
!        S_X0 = 15mm
!        S_Y = 15mm
!        S_Y0 = 7.5mm
!        TL_G = 40um
!        TL_L = 12.1467848662796mm
!        TL_W = 0.24mm
!        TR_L = 706.43026744077um
!        TR_L2 = 226.8691264263um
!        TR_L3 = 373.29154801399um
!        TR_P = 109.62537243288um
!        TR_W = 1597.2041747747um
!        TR_W2 = 282.226541747um
!        V_PBO = 20um
!        V_Pad = 40um
!        V_R = 20um
!        WG_L = 0.8255mm
!        WG_W = 1.651mm
!        th = 5um
!
!Data is not renormalized
# GHZ S MA
! Terminal data exported
! Port[1] = 1
! Port[2] = 2
110                            0.901379221292598 -40.9758825728565 0.000509631761191184 -143.389622261983 0.000509631761191184 -143.389622261983 0.902581643263508 -40.9156273028995 
! Gamma         0.817017568577501 1272.16698086789 0.81704038665101 1272.16759105577 
! Port Impedance         420.483415006462 0.28157761994206 420.503460150149 0.281624398505528 
110.1                          0.901210361675549 -52.5352577166916 0.000507638645710496 -161.762169265187 0.000507638645710493 -161.762169265187 0.902550102394966 -52.476012252755 
! Gamma         0.815126580345003 1275.96169095487 0.815149470841455 1275.96229949772 
! Port Impedance         419.61390062103  0.279677449435271 419.633903893512 0.279724061989132 
110.2                          0.901097252322005 -64.0703112977166 0.000504796849696355 179.755882480737 0.000504796849696351 179.755882480737 0.902527862091787 -64.0135707496223 
! Gamma         0.813252278181781 1279.74858187561 0.813275240852478 1279.74918878691 
! Port Impedance         418.752101201326 0.277803375444455 418.772062976728 0.277849823906788 
110.3                          0.901036331231468 -75.5817106279733 0.000501135745702446 161.204116751601 0.000501135745702441 161.204116751601 0.902515433324164 -75.5286624043185 
! Gamma         0.811394435815059 1283.52772283778 0.811417470394038 1283.52832813083 
! Port Impedance         417.897910176525 0.275954909470537 417.917830823769 0.276001195726756 
110.4                          0.901024108213916 -87.0701026535404 0.000496726256175212 142.622912180277 0.000496726256175209 142.622912180277 0.90251326143823 -87.0216519453522 
! Gamma         0.809552831228962 1287.29918209556 0.809575937449694 1287.29978578349 
! Port Impedance         417.051222996822 0.274131574740325 417.071102879722 0.274177700643897 
110.5                          0.901057141807374 -98.5361166148248 0.000491677052959193 124.051391922955 0.000491677052959192 124.051391922955 0.902521717193561 -98.4929105170161 
! Gamma         0.80772724656215 1291.06302696768 0.807750424161979 1291.06362906343 
! Port Impedance         416.211937084637 0.272332905863949 416.231776561998 0.272378873237101 
110.6                          0.901132013797133 -109.980366665414 0.000486127064827063 105.525458390254 0.000486127064827061 105.525458390254 0.90254108438903 -109.942817251244 
! Gamma         0.805917468008441 1294.81932385497 0.805940716728073 1294.81992437133 
! Port Impedance         415.379951787253 0.270558448504078 415.399751212965 0.27060425913849 
110.7                          0.901245300484982 -121.403454487307 0.000480235714419879 87.076105692042  0.000480235714419879 87.0761056920422 0.902571542793883 -121.371761175855 
! Gamma         0.804123285720329 1298.56813825761 0.804146605303435 1298.56873720718 
! Port Impedance         414.555168330833 0.268807759056441 414.574928053965 0.268853414713921 
110.8                          0.901393539612325 -132.805971940723 0.000474172651972053 68.7281409484323 0.000474172651972051 68.7281409484322 0.902613144576998 -132.780143535897 
! Gamma         0.802344493715286 1302.30953479184 0.802367883908301 1302.31013218708 
! Port Impedance         413.737489775771 0.267080404341216 413.757210140658 0.267125906754359 
110.9                          0.90157319151739 -144.188503787083 0.0004681086414128 50.4993664378773 0.000468108641412799 50.4993664378773 0.902665781673417 -144.168380621006 
! Gamma         0.800580889784766 1306.04357720637 0.800604350336766 1306.04417305956 
! Port Impedance         412.926820973331 0.265375961304858 412.946502319664 0.265421312177689 
111                            0.901780592670276 -155.551630523349 0.000462208796773663 32.4001991957517 0.00046220879677366 32.4001991957515 0.902729140428291 -155.536907208804 
! Gamma         0.798832275405808 1309.77032839835 0.79885580606843 1309.77092272161 
! Port Impedance         412.123068523526 0.263694016731957 412.142711186438 0.26373921774056 
111.1                          0.902011899144398 -166.895931363742 0.000456628768151082 14.4336487839534 0.000456628768151078 14.4336487839533 0.902802638253471 -166.886180749858 
! Gamma         0.79709845565516 1313.48985042898 0.79712205618254 1313.49044323428 
! Port Impedance         411.326140734205 0.262034166966748 411.345745044355 0.262079219759873 
111.2                          0.902263016786566 -178.22198739912 0.000451513933635301 -3.40445639632366 0.000451513933635298 -3.40445639632367 0.902885334661346 -178.21668642764 
! Gamma         0.795379239125828 1317.20220453877 0.795402909274546 1317.20279583791 
! Port Impedance         410.535947581296 0.26039601764389 410.555513864948 0.260440923843549 
111.3                          0.902529513765739 170.469615048262 0.000447001287882735 -21.1251111641457 0.000447001287882733 -21.1251111641458 0.902975805533781 170.471056785403 
! Gamma         0.793674437845989 1320.90745116239 0.793698177375024 1320.90804096705 
! Port Impedance         409.752400670176 0.258779183428171 409.771929249284 0.258823944630217 
111.4                          0.902806509701105 159.178280881033 0.000443223560978106 -38.7457525547148 0.000443223560978106 -38.7457525547146 0.9030719642763  159.176489012347 
! Gamma         0.791983867200161 1324.6056499433  0.792007675870849 1324.60623826498 
! Port Impedance         408.975413198123 0.257183287762789 408.994904390407 0.257227905537479 
111.5                          0.903088533544751 147.903402545619 0.000440315119618353 -56.2899489348371 0.000440315119618354 -56.2899489348368 0.903170805769885 147.899001387016 
! Gamma         0.790307345852591 1328.29685974786 0.790331223428578 1328.29744659794 
! Port Impedance         408.204899917825 0.255607962625896 408.224354036844 0.255652438518437 
111.6                          0.903369339615359 136.644356345383 0.00043841933458291 -73.7872374449088 0.000438419334582911 -73.7872374449086 0.903268037618478 136.637927437366 
! Gamma         0.788644695672752 1331.98113867932 0.788668641919959 1331.98172406903 
! Port Impedance         407.440777101893 0.254052848295076 407.460194457126 0.254097183826162 
111.7                          0.903641667379464 125.400499020513 0.000437697280773114 -91.2731789352822 0.000437697280773113 -91.2731789352823 0.9033575466149  125.392535105403 
! Gamma         0.786995741662906 1335.65854409133 0.78701975634949 1335.65912803173 
! Port Impedance         406.682962508367 0.252517593119478 406.702343405282 0.252561789785807 
111.8                          0.903896925410946 114.171165110428 0.0004383378143781 -108.78970055637 0.0004383378143781 -108.78970055637 0.903430625097511 114.162022051417 
! Gamma         0.785360311887657 1339.3291326012  0.785384394783974 1339.32971510326 
! Port Impedance         405.931375347167 0.251001853299312 405.950720087292 0.251045912574094 
111.9                          0.904124773034558 102.955666032757 0.000440569192186574 -126.385810842469 0.000440569192186574 -126.385810842469 0.903474851625328 102.945519807547 
! Gamma         0.783738237405429 1342.99296010292 0.783762388283997 1342.99354117744 
! Port Impedance         405.185936247464 0.249505292672427 405.205245128459 0.249549216005874 
112                            0.904312564119073 91.7532925283872 0.000444672379540856 -144.118804719669 0.000444672379540857 -144.118804719668 0.9034724876933  91.7421179711889 
! Gamma         0.782129352201808 1346.6500817798  0.782153570837274 1346.65066143746 
! Port Impedance         404.446567225942 0.248027582507723 404.465840541664 0.248071371327531 
112.1                          0.904444606285012 80.563323342899  0.000450995867284962 -162.056131448373 0.000450995867284963 -162.056131448372 0.903398236537245 80.550930180519  
! Gamma         0.780533493124686 1350.30055211684 0.780557779293792 1350.30113036819 
! Port Impedance         403.713191655919 0.246568401305131 403.732429696492 0.246612057016947 
112.2                          0.904501176357916 69.3850450911891 0.000459970801280134 179.721818973102 0.000459970801280132 179.721818973102 0.903216270962405 69.3712425407875 
! Gamma         0.778950499821161 1353.94442491292 0.778974853302708 1353.94500176837 
! Port Impedance         402.985734237305 0.24512743460194 403.004937289184 0.245170958589813 
112.3                          0.904457222746881 58.2177917655297 0.000472122649708613 161.11765195819  0.000472122649708613 161.11765195819  0.902876730580633 58.2028163231375 
! Gamma         0.777380214676118 1357.58175329258 0.777404635250934 1357.58232876243 
! Port Impedance         402.264120967369 0.243704374785215 402.283289313401 0.243747768412047 
112.4                          0.904280687271346 47.0610182283642 0.000488069555322551 142.011187809775 0.000488069555322549 142.011187809775 0.902312772105464 47.046458822663  
! Gamma         0.775822482752457 1361.21258971765 0.77584697020336 1361.21316381205 
! Port Impedance         401.548279112278 0.242298920910112 401.567413031768 0.242342185518083 
112.5                          0.90393041660932 35.9144316685616 0.00050848381607945 122.25163151373  0.000508483816079452 122.25163151373  0.901441394650118 35.9050024068679 
! Gamma         0.774277151732911 1364.83698599855 0.77430170584467 1364.83755872755 
! Port Impedance         400.838137179408 0.240910778523857 400.857236948176 0.240953915434851 
112.6                          0.903353761188011 24.7782201440385 0.000533963690843637 101.648147397588 0.000533963690843637 101.648147397588 0.90017536047996 24.7847367947402 
! Gamma         0.772744071863408 1368.45499330543 0.772768692422687 1368.45556467896 
! Port Impedance         400.133624890375 0.239539659495198 400.152690780822 0.239582670011209 
112.7                          0.902484292496743 13.6534391547769 0.000564706789444375 79.9620754297382 0.000564706789444375 79.9620754297384 0.89845836295312 13.6968647290802 
! Gamma         0.771223095897954 1372.06666217897 0.771247782693215 1372.06723220684 
! Port Impedance         399.434673154789 0.238185281849125 399.453705435948 0.238228167252659 
112.8                          0.901240834268121 2.5426426665796  0.000599796845133075 56.9116992119835 0.000599796845133075 56.9116992119838 0.896332358612008 2.6574001052152  
! Gamma         0.76971407904508 1375.67204254105 0.769738831866316 1375.67261123294 
! Port Impedance         398.741214044687 0.236847369606682 398.760212982283 0.23689013116115 
112.9                          0.899530576325935 -8.54914376332294 0.000635915864590364 32.2169502517539 0.000635915864590361 32.2169502517538 0.89401473843503 -8.31728072943213 
! Gamma         0.76821687891632 1379.27118370508 0.768241697553999 1379.27175107056 
! Port Impedance         398.053180769638 0.23552565262968 398.072146626144 0.235568291579774 
113                            0.89726183870896 -19.6130715456791 0.000665793562218522 5.73139129253153 0.000665793562218523 5.7313912925317  0.891902925048345 -19.220185553081 
! Gamma         0.766731355480118 1382.86413438618 0.766756239719254 1382.86470043472 
! Port Impedance         397.370507652496 0.234219866470152 397.38944068719  0.234262384042219 
113.1                          0.894375771019622 -30.6349797086038 0.000678349170765303 -22.3169697205612 0.000678349170765302 -22.3169697205611 0.89042446071067 -30.0623539700994 
! Gamma         0.765257371006946 1386.4509427112  0.765282320626402 1386.45150745212 
! Port Impedance         396.693130105779 0.232929752224364 396.712030574792 0.232972149626764 
113.2                          0.890907430316774 -41.5947358883154 0.000663759218653812 -51.1218683812603 0.00066375921865381 -51.1218683812603 0.889810815948396 -40.8698724329476 
! Gamma         0.763794789942331 1390.03165622832 0.763819804792728 1390.03221967086 
! Port Impedance         396.020984608657 0.231655056391242 396.039852765028 0.231697334814705 
113.3                          0.88707439989798 -52.468615773228 0.000621593003179401 -79.4642663151519 0.000621593003179402 -79.464266315152 0.890006929847825 -51.6699647850532 
! Gamma         0.762343479072589 1393.60632191667 0.762368558941347 1393.60688406999 
! Port Impedance         395.354008684527 0.230395530735055 395.372844778254 0.230437691353023 
113.4                          0.883349476243289 -63.2375788151265 0.000562036490967296 -106.270743091403 0.000562036490967294 -106.270743091403 0.890777589109783 -62.4795161907698 
! Gamma         0.760903307274449 1397.1749861957  0.76092845195526 1397.17554706884 
! Port Impedance         394.692140879164 0.229150932152204 394.710945157256 0.229192976121169 
113.5                          0.88041572818036 -73.9011083589539 0.000497894265892301 -131.021972454806 0.000497894265892301 -131.021972454806 0.891864801444457 -73.303607905309 
! Gamma         0.75947414553894 1400.73769493427 0.75949935483259 1400.73825453614 
! Port Impedance         394.035320739426 0.22792102254198 394.05409344595  0.227962951001808 
113.6                          0.878923691566822 -84.4876012490646 0.000437714861510571 -153.699507681495 0.000437714861510572 -153.699507681495 0.893074376908298 -84.1400029461245 
! Gamma         0.75805586693261 1404.29449345957 0.75808114064293 1404.29505179899 
! Port Impedance         393.383488792496 0.226705568681149 393.402230168624 0.226747382755404 
113.7                          0.879162630589117 -95.0478943291807 0.000384990650131802 -174.528979845672 0.0003849906501318 -174.528979845672 0.894288811498523 -94.9837411154472 
! Gamma         0.75664834655188 1407.84542656594 0.756673684484803 1407.84598365164 
! Port Impedance         392.736586525648 0.225504342102249 392.755296809707 0.225546042898503 
113.8                          0.880927249174952 -105.632441008407 0.000340139774562165 166.211864528994 0.000340139774562163 166.211864528994 0.895448350677493 -105.829756665491 
! Gamma         0.755251461480905 1411.39053852342 0.755276863444174 1411.39109436402 
! Port Impedance         392.094556366519 0.224317118975446 392.113235794034 0.224358707585585 
113.9                          0.883692480889821 -116.271165375062 0.000302288019614721 148.276696783694 0.000302288019614722 148.276696783694 0.896528656940806 -116.673872616188 
! Gamma         0.753865090750941 1414.92987308616 0.753890556553991 1414.93042769019 
! Port Impedance         391.457341663873 0.223143679993865 391.475990467613 0.223185157494383 
114                            0.886899696869195 -126.970069964526 0.00027022774083008 131.471593100031 0.000270227740830081 131.471593100031 0.89752450858913 -127.512962785432 
! Gamma         0.752489115300844 1418.46347350068 0.752514644754742 1418.46402687656 
! Port Impedance         390.824886668843 0.221983810262238 390.843505078867 0.222025177714535 
114.1                          0.89013385265434 -137.719947398306 0.000242815032536386 115.65219230116  0.000242815032536386 115.65219230116  0.898439906913181 -138.344804003711 
! Gamma         0.751123417938565 1421.9913825139  0.751149010855968 1421.99193466998 
! Port Impedance         390.197136516636 0.220837299188799 390.215724760335 0.220878557639458 
114.2                          0.893155343562923 -148.506298681689 0.000219093924805948 100.715185827032 0.000219093924805948 100.715185827031 0.899282654331172 -149.167862179768 
! Gamma         0.749767883303607 1425.51364238108 0.749793539498733 1425.5141933256  
! Port Impedance         389.574037208692 0.219703940380285 389.592595510829 0.219745090861351 
114.3                          0.895857933454427 -159.315278219361 0.000198309967216506 86.5904755458739 0.000198309967216506 86.5904755458738 0.900061598478643 -159.98110050703 
! Gamma         0.748422397830401 1429.03029487354 0.748448117119001 1429.03084461465 
! Port Impedance         388.955535595271 0.218583531539959 388.974064178027 0.218624575069209 
114.4                          0.898215409414615 -170.135899124815 0.000179886853769978 73.2355060693846 0.000179886853769979 73.2355060693844 0.900785342377488 -170.783830785748 
! Gamma         0.747086849712579 1432.54138128627 0.747112631911913 1432.54192983203 
! Port Impedance         388.341579358478 0.217475874368545 388.36007844149  0.217516811949756 
114.5                          0.900241783680379 179.039779939333 0.00016339570025298 60.63166375914   0.000163395700252981 60.6316637591405 0.901461719756474 178.424395036555 
! Gamma         0.745761128868105 1436.04694244536 0.745786973796921 1436.04748980374 
! Port Impedance         387.732116995687 0.216380774467992 387.750586796088 0.216421607091197 
114.6                          0.901967401588153 168.217204215557 0.000148527478024804 48.7821708351014 0.000148527478024802 48.7821708351005 0.902097651795512 167.643862050366 
! Gamma         0.744445126905254 1439.54701871527 0.74447103438377 1439.54756489417 
! Port Impedance         387.127097803375 0.215298041247959 387.145538535834 0.215338769889695 
114.7                          0.90342641873978 157.399986971226 0.000135071442583991 37.7107068797699 0.000135071442583991 37.7107068797697 0.902699183295756 156.874747071652 
! Gamma         0.743138737089408 1443.04165000603 0.743164706939286 1443.04219501324 
! Port Impedance         386.526471861341 0.214227487834939 386.5448837381   0.214268113458502 
114.8                          0.904650996118372 146.590469184449 0.000122899489711153 27.459685009222  0.000122899489711149 27.4596850092219 0.903271595108498 146.117157815357 
! Gamma         0.741841854310642 1446.5308757802  0.741867886354973 1446.53141962344 
! Port Impedance         385.930190017305 0.213168930983943 385.948573248218 0.213209454539623 
114.9                          0.90566905370547 135.790133910041 0.000111955216932621 18.0865048509465 0.000111955216932619 18.0865048509462 0.903819541731125 135.371161707924 
! Gamma         0.740554375052082 1450.01473505974 0.740580469115364 1450.01527774664 
! Port Impedance         385.338203871874 0.21212219099265 385.356558664442 0.212162613417967 
115                            0.906503752483814 124.999895195969 0.000102245696105078 9.65514930107581 0.000102245696105078 9.65514930107582 0.904347189655473 124.636808054429 
! Gamma         0.739276197359016 1453.49326643278 0.739302353267137 1453.49380797089 
! Port Impedance         384.750465763862 0.211087091617952 384.768792323272 0.211127413837888 
115.1                          0.907173733281871 114.220293720626 9.38329235765396E-05 2.21952257294381 9.38329235765388E-05 2.21952257294177 0.904858345088857 113.91414626865  
! Gamma         0.73800722080873 1456.96650806018 0.738033438388948 1456.96704845697 
! Port Impedance         384.166928755966 0.21006345999481 384.185227285123 0.210103682922033 
115.2                          0.907693627734071 103.451627559899 8.68204956341428E-05 -4.20474086921852 8.6820495634141E-05 -4.20474086921847 0.90535656526866 103.203242226158 
! Gamma         0.736747346481055 1460.43449768203 0.736773625561982 1460.4350369449  
! Port Impedance         383.587546620771 0.209051126557357 383.605817320334 0.209091251092441 
115.3                          0.908074613790792 92.6940393532885 8.13301214812242E-05 -9.67884016110879 8.13301214812231E-05 -9.67884016110913 0.905845248799301 92.5041944301074 
! Gamma         0.735496476929604 1463.89727262402 0.735522817341185 1463.89781076027 
! Port Impedance         383.012273827085 0.208049924962166 383.030516895503 0.208089951993808 
115.4                          0.908324917528805 81.947574738995  7.74645593667635E-05 -14.3775228192246 7.74645593667633E-05 -14.3775228192249 0.906327698501893 81.817151522297  
! Gamma         0.734254516153671 1467.3548698036  0.734280917727172 1467.35540682047 
! Port Impedance         382.441065526599 0.207059692013625 382.459281160142 0.207099622418852 
115.5                          0.908450225006723 71.2122221632451 7.52612475725237E-05 -18.5985321778415 7.5261247572522E-05 -18.5985321778411 0.906807145218694 71.1423326812552 
! Gamma         0.733021369570798 1470.80732573618 0.733047832138783 1470.80786164082 
! Port Impedance         381.87387754085  0.206080267591343 381.892065933641 0.206120102235719 
115.6                          0.908453995680141 60.4879409071001 7.46522904910228E-05 -22.7213998282553 7.46522904910217E-05 -22.7213998282563 0.907286711874021 60.4800525822623 
! Gamma         0.731796943989956 1474.25467654104 0.731823467386275 1474.25521134054 
! Port Impedance         381.31066634849  0.20511149457953 381.328827692541 0.205151234317358 
115.7                          0.90833767976176 49.7746820629381 7.54506235918778E-05 -27.1231469732987 7.54506235918742E-05 -27.1231469732965 0.907769281739829 49.830752790893  
! Gamma         0.730581147585358 1477.69695794727 0.730607731645129 1477.69749164864 
! Port Impedance         380.751389072849 0.204153218798283 380.769523558087 0.204192864472801 
115.8                          0.90810084472027 39.072405917334  7.7369503314699E-05 -32.0951851196458 7.73695033146934E-05 -32.0951851196431 0.908257209615825 39.1950415944207 
! Gamma         0.729373889870867 1481.1342052995  0.729400534430458 1481.13473790969 
! Port Impedance         380.196003469781 0.20320528893673 380.214111284084 0.203244841380304 
115.9                          0.907741215346496 28.3810985412571 8.00620751308991E-05 -37.8046562700842 8.00620751308994E-05 -37.8046562700823 0.908751773796181 28.5737440530153 
! Gamma         0.728175081674984 1484.56645356359 0.728201786571999 1484.56698508945 
! Port Impedance         379.644467915792 0.202267556487961 379.662549245017 0.202307016522273 
116                            0.907254629884371 17.7007902352183 8.3159519502482E-05 -44.3060088010731 8.31595195024795E-05 -44.3060088010727 0.909252202214448 17.9679628193875 
! Gamma         0.726984635116409 1487.99373733216 0.727011400189672 1487.99426778049 
! Port Impedance         379.096741396434 0.201339875685703 379.114796424446 0.201379244121934 
116.1                          0.906634913300446 7.03157880417727 8.62943780026262E-05 -51.5788297651422 8.62943780026255E-05 -51.5788297651395 0.909754009056583 7.37914662409572 
! Gamma         0.725802463580153 1491.41609083005 0.725829288669694 1491.41662020756 
! Port Impedance         378.552783494969 0.200422103442669 378.570812403672 0.200461381081681 
116.2                          0.905873669756461 -3.62633848486509 8.91076728456546E-05 -59.5671330791338 8.9107672845652E-05 -59.5671330791319 0.910246245514076 -3.19084560421903 
! Gamma         0.724628481694189 1494.83354791966 0.724655366641226 1494.83407623302 
! Port Impedance         378.012554381281 0.199514099290553 378.030557350645 0.199553286923066 
116.3                          0.904960003106232 -14.2726188033348 9.12446796533916E-05 -68.2088696076247 9.12446796533898E-05 -68.2088696076212 0.910707126324327 -13.7397165522412 
! Gamma         0.723462605306627 1498.24614210622 0.723489549953552 1498.24666936202 
! Port Impedance         377.476014801043 0.198615725321603 377.493992009133 0.198654823728364 
116.4                          0.903880193426556 -24.9067054272005 9.23446838245211E-05 -77.4555920342602 9.23446838245167E-05 -77.4555920342575 0.911097458644934 -24.2648085088969 
! Gamma         0.722304751463397 1501.65390654292 0.722331755653762 1501.65443274767 
! Port Impedance         376.943126065126 0.197726846131725 376.961077688131 0.197765856083682 
116.5                          0.90261740291204 -35.5277250007239 9.20283402034589E-05 -87.2872529939501 9.20283402034575E-05 -87.2872529939478 0.911351712236224 -34.763424588587 
! Gamma         0.72115483838643 1505.05687403598 0.721181901964934 1505.05739919615 
! Port Impedance         376.413850039246 0.196847328765082 376.431776251501 0.196886251023545 
116.6                          0.901151583764305 -46.1343323049035 8.98848481891458E-05 -97.7294785273143 8.98848481891435E-05 -97.7294785273129 0.911368199944758 -45.2336189937976 
! Gamma         0.720012785452325 1508.45507704963 0.720039908264797 1508.45560117161 
! Port Impedance         375.888149133836 0.195977042660137 375.906050107855 0.196015877976943 
116.7                          0.899459969298549 -56.7244767921536 8.54612483502317E-05 -108.885473152358 8.54612483502297E-05 -108.885473152356 0.911003891722834 -55.6757231949626 
! Gamma         0.718878513171486 1511.84854771096 0.718905695064869 1511.84907080106 
! Port Impedance         375.365986294148 0.195115859597094 375.383862200646 0.195154608714763 
116.8                          0.897518952149211 -67.2950581816751 7.82596519105545E-05 -121.011660064765 7.82596519105498E-05 -121.01166006476 0.910086219668268 -66.0946501996546 
! Gamma         0.717751943167711 1515.23731781471 0.717779183990049 1515.2378398792  
! Port Impedance         374.84732499057  0.194263653646696 374.865175998491 0.194302317298588 
116.9                          0.89530896915631 -77.841441777456 6.77636283387523E-05 -134.730822522781 6.77636283387535E-05 -134.730822522783 0.908458867466452 -76.5021728703621 
! Gamma         0.716632998158241 1518.62141882798 0.716660297758665 1518.62193987308 
! Port Impedance         374.332129209159 0.193420301120351 374.349955485699 0.193458880030818 
117                            0.892825452115987 -88.3568475426579 5.35911513375474E-05 -151.774430795205 5.35911513375439E-05 -151.7744307952  0.906065477105226 -86.9169593398772 
! Gamma         0.715521601934231 1522.00088189487 0.715548960162942 1522.0014019267  
! Port Impedance         373.820363442377 0.192585680521527 373.83816515301  0.192624175406061 
117.1                          0.890100969009695 -98.8317869576665 3.64054522521233E-05 -178.429876010075 3.64054522521209E-05 -178.429876010072 0.903031395692798 -97.3598248533406 
! Gamma         0.714417679341656 1525.37573784096 0.714445096049904 1525.3762568656  
! Port Impedance         373.311992680034 0.191759672498394 373.329769988534 0.191798084063775 
117.2                          0.887244953962816 -109.2541548818  2.50663227400849E-05 121.33627502223  2.50663227400818E-05 121.336275022228 0.899664050358218 -107.845024782038 
! Gamma         0.713321156262624 1528.74601717779 0.713348631302692 1528.74653520127 
! Port Impedance         372.80698240042  0.190942159797674 372.824735468889 0.190980488742107 
117.3                          0.884501777589552 -119.611459206596 4.43220105562056E-05 56.7760403590558 4.43220105562097E-05 56.7760403590513 0.896337819133834 -118.373640379617 
! Gamma         0.712231959597093 1532.11175010727 0.712259492822277 1532.11226713554 
! Port Impedance         372.305298561639 0.190133027219653 372.323027550529 0.190171274232916 
117.4                          0.882300452306397 -129.897590895426 8.55854279982582E-05 27.7417402301651 8.55854279982626E-05 27.7417402301652 0.893343179918987 -128.934598319834 
! Gamma         0.711150017244984 1535.47296652588 0.711177608509569 1535.47348256486 
! Port Impedance         371.806907593124 0.189332161574339 371.824612661256 0.189370327337912 
117.5                          0.881209668993362 -140.124963753244 0.000141351745589041 9.04217375651796 0.000141351745589041 9.04217375651796 0.890811365552452 -139.511589970986 
! Gamma         0.710075258088671 1538.82969602901 0.710102907247921 1538.83021108453 
! Port Impedance         371.311776387331 0.188539451638712 371.329457691923 0.188577536825919 
117.6                          0.881685439603608 -150.334387125737 0.000212652144734028 -6.57654944716431 0.000212652144734037 -6.57654944716385 0.888735967548368 -150.089777485434 
! Gamma         0.709007611975848 1542.181967915   0.70903531888602 1542.18248199286 
! Port Impedance         370.819872291618 0.187754788115058 370.837529988304 0.187792793391192 
117.7                          0.883686412504612 -160.585194723199 0.000302502800928112 -21.1091047190798 0.000302502800928118 -21.1091047190786 0.887036112150796 -160.658854184474 
! Gamma         0.70794700970276 1545.52981118929 0.707974774221146 1545.53032429522 
! Port Impedance         370.331163100292 0.186978063590331 370.348797343144 0.187015989612787 
117.8                          0.886558896275585 -170.922361111613 0.000415013626611237 -35.3282751830189 0.000415013626611249 -35.3282751830175 0.885610295347877 -171.213034142511 
! Gamma         0.706893382997788 1548.87325456837 0.706921204982782 1548.87376670804 
! Port Impedance         369.845617046826 0.186209172496533 369.863227988377 0.186247019914931 
117.9                          0.889421600178191 178.64834436683  0.000555280666413317 -49.6348527094669 0.000555280666413334 -49.6348527094659 0.884365569016489 178.25020902702  
! Gamma         0.705846664505376 1552.21232648374 0.705874543816497 1552.21283766278 