! Touchstone file exported from HFSS 2020.2.4
!        File:           D:/Project/Deacon_v3/240214_MPW12_Gap_WG_Tester_D2A/Gap_WG_Tester_D2.aedt
!        Generated:      11:44:09 AM  Mar 20, 2025
!        Design:         Line
!        Project:        Gap_WG_Tester_D2
!        Setup:          Setup1
!        Solution:       Sweep
!
! Variables:
!        C_G = 16um
!        C_H = 0.5mm
!        Deembedding = 25.4mm
!        E_P = 133um
!        S_H1 = 260um
!        S_H2 = 0.013mm
!        S_H3 = 8um
!        S_X = 30mm
!        S_X0 = 15mm
!        S_Y = 15mm
!        S_Y0 = 7.5mm
!        TL_G = 40um
!        TL_L = 12.1467848662796mm
!        TL_W = 0.24mm
!        TR_L = 706.43026744077um
!        TR_L2 = 226.8691264263um
!        TR_L3 = 373.29154801399um
!        TR_P = 109.62537243288um
!        TR_W = 1597.2041747747um
!        TR_W2 = 282.226541747um
!        V_PBO = 20um
!        V_Pad = 40um
!        V_R = 20um
!        WG_L = 0.8255mm
!        WG_W = 1.651mm
!        th = 5um
!
!Data is not renormalized
# GHZ S MA
! Terminal data exported
! Port[1] = 1
! Port[2] = 2
110                            0.889938767742361 -40.7330438502837 0.000539414438945562 90.9120998555714 0.000539414438945562 90.9120998555714 0.888207501696398 -40.82259580793  
! Gamma         0.817059309713676 1272.16784588555 0.817057087194594 1272.16794280956 
! Port Impedance         420.598452418842 0.281588785244466 420.510375030515 0.281651568398287 
110.1                          0.890175676115457 -52.2972976553328 0.000581399137349172 73.9891885493742 0.000581399137349173 73.9891885493742 0.888329513594529 -52.3843396808411 
! Gamma         0.815168446450079 1275.96255370254 0.815166215076515 1275.96265031687 
! Port Impedance         419.728699003757 0.279688247295953 419.64080353461  0.279751146983406 
110.2                          0.890409501547135 -63.840359741617 0.000626179723337963 56.4110495612345 0.000626179723337963 56.4110495612347 0.888450927091246 -63.9238295356288 
! Gamma         0.813294268815338 1279.74944237206 0.813292028616403 1279.74953867913 
! Port Impedance         418.86666268208  0.277813811741921 418.778947519549 0.277876824944233 
110.3                          0.890639770620512 -75.3624460431167 0.000672425840004845 38.1047962173379 0.000672425840004842 38.1047962173386 0.888572100357614 -75.4413241793937 
! Gamma         0.811436550541103 1283.52858110151 0.811434301545666 1283.52867710371 
! Port Impedance         418.0122368535   0.275964989965878 417.924700407274 0.276028113733173 
110.4                          0.89086600293224 -86.8637691029592 0.000717823112532581 19.0262983412528 0.000717823112532582 19.0262983412538 0.888693361796084 -86.937081862407 
! Gamma         0.809595069615849 1287.30003814484 0.809592811852537 1287.30013384453 
! Port Impedance         417.165316939285 0.274141305080142 417.077957640882 0.274204536529601 
110.5                          0.891087711113482 -98.3445381080822 0.000758967389941874 -0.812382478577814 0.000758967389941879 -0.812382478576601 0.888815007292984 -98.411360386481 
! Gamma         0.80776960818251 1291.06388082052 0.807767341679713 1291.06397622002 
! Port Impedance         416.325800333474 0.272342291583194 416.238616635831 0.272405627897277 
110.6                          0.891304400840567 -109.804958921735 0.000791674847055913 -21.3141779991492 0.000791674847055921 -21.3141779991478 0.888937297143733 -109.864417213141 
! Gamma         0.805959952439109 1294.82017552914 0.805957677224984 1294.82027063075 
! Port Impedance         415.493586355504 0.270567495028813 415.406576732577 0.270630933453541 
110.7                          0.891515570835079 -121.245234113761 0.00081190127958581 -42.2822842578343 0.000811901279585816 -42.2822842578325 0.889060452601927 -121.296509570887 
! Gamma         0.804165892542273 1298.56898777065 0.804163608644746 1298.56908257664 
! Port Impedance         414.668576204212 0.268816471706518 414.581739150583 0.268880009549802 
110.8                          0.891720712848866 -132.665562988497 0.000817070600657774 -63.4377486315671 0.000817070600657788 -63.4377486315657 0.889184651994749 -132.707894560504 
! Gamma         0.802387222513542 1302.31038216107 0.802384929960311 1302.31047667367 
! Port Impedance         413.850672913177 0.267088788332878 413.764006943672 0.267152422962904 
110.9                          0.891919311631278 -144.06614161014 0.000807094514865653 -84.473382736928 0.000807094514865669 -84.4733827369264 0.889310026337066 -144.098829257116 
! Gamma         0.80062374014837 1306.04442244887 0.800621438966904 1306.0445166703  
! Port Impedance         413.039781307342 0.265384021753257 412.953284956655 0.265447750596926 
111                            0.892110844874351 -155.447162825417 0.000784365545314554 -105.122045372529 0.000784365545314573 -105.122045372528 0.889436654367201 -155.469570807072 
! Gamma         0.798875246927728 1309.77117153098 0.798872937145279 1309.77126546341 
! Port Impedance         412.235807960887 0.263701758653607 412.149479783218 0.263765579195013 
111.1                          0.892294783131168 -166.808816283265 0.000752746490719457 -125.205349480026 0.000752746490719472 -125.205349480024 0.88956455691183 -166.820376517257 
! Gamma         0.797141547932235 1313.49069146839 0.797139229575831 1313.49078511397 
! Port Impedance         411.438661156299 0.262041595281899 411.352499724998 0.262105505060864 
111.2                          0.892470589701467 -178.15128845124 0.00071628357546928 -144.644985760475 0.000716283575469294 -144.644985760474 0.889693690474062 -178.151503933562 
! Gamma         0.795422451758707 1317.20304350137 0.795420124855161 1317.20313686224 
! Port Impedance         410.648250844609 0.260403137178837 410.562254751824 0.260467133789483 
111.3                          0.892637720478127 170.525237371727 0.00067832427816987 -163.44433145664 0.000678324278169883 -163.444331456639 0.889823939917965 170.536789095839 
! Gamma         0.793717770439065 1320.90828806442 0.793715435014977 1320.90838114266 
! Port Impedance         409.864488606747 0.258785998917493 409.778656463089 0.258850080006866 
111.4                          0.892795623747082 159.22058104669  0.000641212440519937 178.340913184211 0.000641212440519948 178.340913184212 0.889955110103791 159.244244377997 
! Gamma         0.792027319361519 1324.60648480076 0.792024975443274 1324.60657759845 
! Port Impedance         409.087287615988 0.257189803851526 409.001618050197 0.257253967118249 
111.5                          0.892943739930394 147.934565590754 0.000606373138181441 160.628979042407 0.000606373138181451 160.628979042407 0.890086916299137 147.970603361038 
! Gamma         0.790350917193944 1328.29769257656 0.79034856480772 1328.29778509575 
! Port Impedance         408.316562601445 0.255614183871659 408.231054260065 0.255678427064636 
111.6                          0.893081501263143 136.66701717854  0.000574547455767392 143.329949424606 0.000574547455767398 143.329949424607 0.890218973164675 136.715607158116 
! Gamma         0.788688385809384 1331.98196949487 0.788686024981153 1331.98206173758 
! Port Impedance         407.55222981258  0.2540587791701  407.466881359642 0.254123100087256 
111.7                          0.89320833139001 125.417765149916 0.000546029558488531 126.355806119867 0.000546029558488536 126.355806119867 0.89035078207491 125.478996622436 
! Gamma         0.78703955021362 1335.65937290914 0.787037180969149 1335.65946487735 
! Port Impedance         406.794206984694 0.252523238012618 406.709017101405 0.252587634499671 
111.8                          0.893323644867181 114.186642025118 0.000520850377219202 109.624951352137 0.000520850377219204 109.624951352137 0.890481716495579 114.260512490393 
! Gamma         0.785404238474719 1339.32995943649 0.785401860839576 1339.33005113219 
! Port Impedance         406.042413305369 0.251007216517978 405.957380689812 0.251071686467254 
111.9                          0.893426846551266 102.97348352851  0.000498902301523738 93.0634502807798 0.000498902301523738 93.0634502807798 0.890611005091899 103.059895615313 
! Gamma         0.783782281654514 1342.99378497073 0.783779895654065 1342.99387639586 
! Port Impedance         405.296769381834 0.249510378444467 405.211892748668 0.249574919793745 
112                            0.89351733085422 91.7781286227301 0.000480017142444091 76.6045559992803 0.00048001714244409 76.6045559992803 0.890737712190548 91.8768873215749 
! Gamma         0.782173513741948 1346.65090469496 0.782171119401365 1346.65099585144 
! Port Impedance         404.557197209215 0.248032394983253 404.472475289389 0.248097005714647 
112.1                          0.893594480837883 80.600419555213  0.000464011910858012 60.1874431915287 0.000464011910858008 60.1874431915289 0.890860715159761 80.7112299185328 
! Gamma         0.780577771588222 1350.30137309403 0.780575368932481 1350.30146398376 
! Port Impedance         403.823620139648 0.246572944558316 403.739051680117 0.246637622697186 
112.2                          0.893657667119321 69.440201919695  0.000450713992154241 43.7556396987271 0.000450713992154235 43.7556396987274 0.890978678214728 69.5626674266671 
! Gamma         0.778994894843687 1353.94524396662 0.778992483897573 1353.94533459148 
! Port Impedance         403.09596285223  0.245131712632722 403.011546615676 0.245196456246616 
112.3                          0.893706246547964 58.2973247358949 0.000439973577922005 27.2553849585485 0.000439973577921996 27.2553849585487 0.891090022099068 58.4309465858033 
! Gamma         0.777424725896434 1357.58257043709 0.777422306684544 1357.58266079893 
! Port Impedance         402.374151323774 0.243708391520997 402.289886088338 0.243773198718628 
112.4                          0.893739560613153 47.171640551484  0.000431668143155635 10.6340042036773 0.000431668143155626 10.6340042036771 0.891192889048489 47.315818238656  
! Gamma         0.775867109812518 1361.21340496709 0.775864682359259 1361.21349506775 
! Port Impedance         401.658112800345 0.242302680207393 401.573997359361 0.242367549137642 
112.5                          0.89375693352715 36.063005571432  0.000425701489692618 -6.16167760660277 0.000425701489692608 -6.16167760660284 0.891285102432399 36.2170392145867 
! Gamma         0.774321894277768 1364.8377993669  0.774319458607365 1364.83788920819 
! Port Impedance         400.947775769561 0.240914284169827 400.863808931297 0.240979213020769 
112.6                          0.89375766992009 24.9712798213179 0.000421998186183428 -23.1868734322679 0.000421998186183418 -23.1868734322682 0.891364120513307 25.134374881056  
! Gamma         0.772788929541139 1368.45580480648 0.772786485677633 1368.45589439018 
! Port Impedance         400.243069933618 0.239542915209283 400.159250521021 0.239607902207251 
112.7                          0.893741052069855 13.896327352999  0.000420492838746938 -40.5002879644896 0.000420492838746925 -40.5002879644898 0.891426983921147 14.0676025877717 
! Gamma         0.771268068359549 1372.06747182636 0.7712656163268  1372.06756115424 
! Port Impedance         399.543926183031 0.238188291284497 399.460253033483 0.238253334693164 
112.8                          0.893706336570897 2.83801650344309 0.000421112302153318 -58.1653749659095 0.000421112302153307 -58.1653749659097 0.89147025679078 3.01651630575267 
! Gamma         0.769759165944164 1375.67285034824 0.769756705765854 1375.67293942205 
! Port Impedance         398.850276571068 0.236850136351726 398.766748536141 0.236915234471217 
112.9                          0.893652750328408 -8.20377977922109 0.000423747616427628 -76.251133537708 0.000423747616427614 -76.2511335377082 0.891489962189666 -8.01906713318006 
! Gamma         0.768262079908077 1379.27198968537 0.768259611607712 1379.27207850684 
! Port Impedance         398.162054288844 0.235528180209422 398.07867023406  0.235593331375447 
113                            0.893579485736917 -19.2291835240232 0.000428211396978016 -94.8319146631786 0.000428211396978003 -94.8319146631791 0.891481513705956 -19.0392996543959 
! Gamma         0.766776670215349 1382.86493855273 0.76677419381626 1382.86502712357 
! Port Impedance         397.479193641066 0.234222158347648 397.39595244567  0.23428736093066 
113.1                          0.893485694872654 -30.2383112157179 0.000434176647680096 -113.985299509658 0.000434176647680082 -113.985299509658 0.891439647224115 -30.0442906964483 
! Gamma         0.76530279913136 1386.45174507698 0.765300314656707 1386.45183339887 
! Port Impedance         396.801630022408 0.232931811802054 396.718530579136 0.232997064206434 
113.2                          0.89337048249081 -41.231273131295 0.000441096991734846 -133.78658348047 0.000441096991734835 -133.78658348047 0.891358360590846 -41.0340921620484 
! Gamma         0.763840331174439 1390.03245680618 0.763837838647209 1390.03254488078 
! Port Impedance         396.129299894491 0.231656887012269 396.04634110935  0.231722187675529 
113.3                          0.893232897575837 -52.2081724913903 0.000448120557729191 -154.297989110757 0.000448120557729177 -154.297989110757 0.891230874968356 -52.0086783540842 
! Gamma         0.762389133068727 1393.60712071932 0.762386632511741 1393.6072085483  
! Port Impedance         395.462140763452 0.230397135684549 395.379321555502 0.230462483076555 
113.4                          0.893071923138768 -63.1691043681666 0.000454034768880327 -175.551116933445 0.000454034768880314 -175.551116933445 0.891049641626442 -62.9679193999561 
! Gamma         0.760949073698243 1397.1757832357  0.760946565134155 1397.17587082067 
! Port Impedance         394.800091158091 0.229152314658531 394.71741045923  0.229217707280753 
113.5                          0.892886463896794 -74.1141542697715 0.000457313020597934 162.476434987068 0.000457313020597925 162.476434987068 0.89080643382272 -73.9115464305563 
! Gamma         0.759520024062112 1400.73849022401 0.75951750751341 1400.73857756659 
! Port Impedance         394.143090608567 0.22792218577796 394.060547363323 0.227987622162738 
113.6                          0.892675331409594 -85.0433962911693 0.000456347057226599 139.883888238462 0.000456347057226591 139.883888238461 0.890492588194122 -84.8391067592011 
! Gamma         0.758101857230919 1404.29528701132 0.758099332719928 1404.2953741131  
! Port Impedance         393.491079625637 0.226706515765244 393.408672790962 0.226771994475076 
113.7                          0.892437226188933 -95.956890677104 0.000449882632439522 116.856427662268 0.000449882632439518 116.856427662267 0.89009949728967 -95.7499078542201 
! Gamma         0.756694448304164 1407.84621839181 0.756691915853048 1407.84630525438 
! Port Impedance         392.843999680412 0.225505076099717 392.761728225485 0.225570595726563 
113.8                          0.892170716269506 -106.854680579254 0.000437508672304474 93.6465733208192 0.000437508672304472 93.6465733208187 0.889619507614687 -106.642950711885 
! Gamma         0.755297674368773 1411.3913286354  0.755295133999534 1411.3914152603  
! Port Impedance         392.201793184629 0.224317642899471 392.119656090656 0.22438320206408 
113.9                          0.89187421177184 -117.736787695408 0.000419907544286108 70.525800769144  0.000419907544286108 70.5258007691432 0.889047444967054 -117.516857576476 
! Gamma         0.75391141445865 1414.93066149611 0.753908866193133 1414.93074788488 
! Port Impedance         391.564403471406 0.223143996806651 391.48239973143  0.2232095941579  
114                            0.891545935185213 -128.603206337565 0.000398668028011807 47.7243614376498 0.000398668028011808 47.7243614376489 0.888383057468895 -128.36980788724 
! Gamma         0.752535549515221 1418.4642602203  0.75253299337511 1418.46434637448 
! Port Impedance         390.931774776482 0.221983922876085 390.849903395193 0.222049557090341 
114.1                          0.891183887635775 -139.453895262402 0.000375773171145989 25.3857783899205 0.000375773171145992 25.3857783899195 0.887634692376131 -139.19951267365 
! Gamma         0.751169962348956 1421.99216755478 0.751167398355781 1421.99225347587 
! Port Impedance         390.303852219912 0.220837210467141 390.222112213464 0.220902880247636 
114.2                          0.890785812632632 -150.288766268942 0.000353081840332161 3.54970195965868 0.000353081840332164 3.54970195965714 0.886824400089955 -150.00328373275 
! Gamma         0.749814537601834 1425.51442575467 0.749811965776967 1425.51451144416 
! Port Impedance         389.680581788225 0.21970365313871 389.598972184054 0.219769357214936 
114.3                          0.890349161425166 -161.107668056308 0.000332036778268011 -17.8436808160922 0.000332036778268013 -17.8436808160934 0.885994188410636 -160.778287501114 
! Gamma         0.748469161710727 1429.03107659118 0.748466582075387 1429.03116205053 
! Port Impedance         389.061910317007 0.218583048547199 388.980430153655 0.218648785674316 
114.4                          0.889871069640761 -171.910363026023 0.000313618019658453 -38.9453012140411 0.000313618019658453 -38.9453012140418 0.885212058830948 -171.522097982249 
! Gamma         0.747133722871667 1432.54216135915 0.747131135446932 1432.54224658984 
! Port Impedance         388.447785473915 0.217475198347446 388.366433800855 0.217540967305706 
114.5                          0.889348366378391 177.303506576282 0.000298431362670218 -60.0024339098275 0.00029843136267022 -60.002433909828 0.884574614125493 177.766366178974 
! Gamma         0.745808111004993 1436.04772088456 0.745805515811859 1436.04780588801 
! Port Impedance         387.838155742105 0.216379908096456 387.756931619571 0.216445707690641 
114.6                          0.888777660939469 166.534468851876 0.000286796983664374 -81.3933212921118 0.000286796983664373 -81.3933212921121 0.884201040203797 167.085591234199 
! Gamma         0.744492217721316 1439.54779553175 0.744489614781004 1439.54788030941 
! Port Impedance         387.232970404056 0.215296987159863 387.151872902877 0.215362816218738 
114.7                          0.888155603038875 155.783297740602 0.000278670785335574 -103.710380738393 0.000278670785335577 -103.710380738393 0.884213256996242 156.430300487796 
! Gamma         0.743185936288329 1443.04242521063 0.743183325623756 1443.0425097639  
! Port Impedance         386.632179525785 0.214226248621033 386.55120772722  0.214292105996819 
114.8                          0.887479520949334 145.051127886142 0.000273014775711247 -127.910311664103 0.000273014775711241 -127.9103116641  0.884702192018118 145.791125110511 
! Gamma         0.741889161598383 1446.53164938364 0.741886543233902 1446.53173371391 
! Port Impedance         386.035733941442 0.213167509192727 385.954886937024 0.213233393760574 
114.9                          0.886748879075667 134.339630191179 0.000265620903499099 -155.458022567343 0.000265620903499098 -155.458022567338 0.885690921535789 135.155855195418 
! Gamma         0.740601790136854 1450.01550707262 0.740599164086388 1450.01559118127 
! Port Impedance         385.443585238274 0.212120589131226 385.362862129645 0.212186499788714 
115                            0.885968521822219 123.651276960969 0.000244813533152882 172.168269395468 0.000244813533152887 172.168269395473 0.887114444953951 124.512249331008 
! Gamma         0.739323719951248 1453.49403686559 0.739321086232917 1453.49412075399 
! Port Impedance         384.85568574194  0.211085312152859 384.775085640703 0.211151247819502 
115.1                          0.885155840262202 112.989721966027 0.000195942063279776 136.208843715644 0.000195942063279794 136.208843715651 0.888831193228442 113.851222833665 
! Gamma         0.738054850621044 1456.9672769233  0.738052209255812 1456.96736059281 
! Port Impedance         384.27198850218  0.210061505352834 384.191510529748 0.210127464969603 
115.2                          0.884356533641246 102.360256767612 0.000129769265396791 102.810997586614 0.000129769265396812 102.810997586618 0.890662082935617 103.168790143681 
! Gamma         0.736795083228235 1460.43526498573 0.736792434236651 1460.43534843768 
! Port Impedance         383.692447278819 0.20904899912633 383.612090566263 0.209114981655179 
115.3                          0.883678514672955 91.7699970732913 7.44924218278341E-05 77.4764653751385 7.44924218278454E-05 77.4764653751388 0.89243579652802 92.4659846037087 
! Gamma         0.73554432032857 1463.89803837844 0.735541663730779 1463.89812161416 
! Port Impedance         383.1170165281   0.208047627091739 383.036780216006 0.208113631515155 
115.4                          0.883358870489445 81.2263160171603 3.88187629830804E-05 62.82598664579   3.88187629830852E-05 62.825986645791  0.894019549082766 81.7472866448196 
! Gamma         0.734302465923455 1467.35563401881 0.734299801739335 1467.35571703961 
! Port Impedance         382.545651389336 0.207057226016021 382.465534627661 0.207123251336576 
115.5                          0.883860705708673 70.7288370297837 1.92198976377039E-05 65.3958643970201 1.92198976377028E-05 65.3958643970134 0.895328601160694 71.018683130953  
! Gamma         0.733069425432512 1470.80808842211 0.733066753681744 1470.80817122928 
! Port Impedance         381.978307671871 0.206077635742099 381.898309619806 0.206143680982017 
115.6                          0.885849119130739 60.2466872821789 1.29436342453761E-05 91.3096267099451 1.29436342453799E-05 91.3096267099724 0.896320229959899 60.2861800938693 
! Gamma         0.731845105666771 1474.25543770753 0.731842426368871 1474.25552030237 
! Port Impedance         381.414941842347 0.205108699118213 381.335061668178 0.205174763318948 
115.7                          0.889542599103426 49.6935065168121 1.4479095805542E-05 107.225580059389 1.44790958055455E-05 107.225580059392 0.896981409906431 49.5550072989914 
! Gamma         0.730629414802477 1477.69771760406 0.730626727976811 1477.69779998783 
! Port Impedance         380.855511012262 0.204150261929199 380.775747893233 0.204216344151022 
115.8                          0.893559412755376 38.9840031869086 1.66085767617419E-05 105.616412937151 1.66085767617452E-05 105.61641293716  0.89731681798153 38.8293761254998 
! Gamma         0.729422262355499 1481.13496345623 0.729419568021293 1481.13504563018 
! Port Impedance         380.299972925812 0.203202172829605 380.220326047998 0.203268272151205 
115.9                          0.895829242657118 28.1606127718832 1.75112536376934E-05 97.3795038592126 1.7511253637697E-05 97.3795038592141 0.897339967853724 28.1125526255289 
! Gamma         0.728223559156321 1484.56721022979 0.728220857332667 1484.56729219518 
! Port Impedance         379.748285948019 0.202264283278613 379.668754506191 0.202330398796704 
116                            0.895969458569529 17.3412940727529 1.71852910455273E-05 86.9112149620206 1.71852910455264E-05 86.9112149620162 0.897067768964929 17.4070556319573 
! Gamma         0.727033217325602 1487.99449251727 0.727030508031463 1487.99457427532 
! Port Impedance         379.200409053118 0.201336447476683 379.120992250621 0.201402578305635 
116.1                          0.894865771176253 6.5865622407702  1.58570832467818E-05 75.9310343103055 1.58570832467842E-05 75.9310343103044 0.896517773367326 6.71486884496148 
! Gamma         0.725851150250288 1491.4168445434  0.725848433504498 1491.41692609533 
! Port Impedance         378.65630181322  0.200418522303885 378.576998861843 0.200484667575369 
116.2                          0.893296954208507 -4.10151848420612 1.37326022679366E-05 65.5158979434774 1.37326022679366E-05 65.5158979434589 0.895707205873254 -3.96238407110889 
! Gamma         0.724677272560267 1494.8343001705  0.724674548381531 1494.83438151752 
! Port Impedance         378.115924387217 0.199510367259857 378.036734507076 0.19957652612252 
116.3                          0.891639692859347 -14.7378243005922 1.0988668333167E-05 57.0879894537571 1.09886683331679E-05 57.0879894537434 0.89465303866331 -14.623318559941 
! Gamma         0.723511500105542 1498.2468929037  0.723508768512437 1498.246974047   
! Port Impedance         377.579237509955 0.198611844405726 377.500159929368 0.198678016024506 
116.4                          0.890030187215396 -25.3360091361752 7.85514345441063E-06 54.1686883173797 7.85514345441696E-06 54.1686883173826 0.893372588914904 -25.2667248894431 
! Gamma         0.722353749933923 1501.65465589609 0.722351010944889 1501.65473683687 
! Port Impedance         377.046202481631 0.197722818307156 376.967236437002 0.197789001862659 
116.5                          0.888502334271458 -35.9054402180322 5.03951812148866E-06 68.8192776538389 5.03951812149061E-06 68.8192776538205 0.891884282769825 -35.8915593696197 
! Gamma         0.721203940269225 1505.05762195382 0.721201193902539 1505.05770269323 
! Port Impedance         376.516781157441 0.196843155977284 376.437925893143 0.196909350666812 
116.6                          0.887053071483058 -46.452084022446 5.18447813797095E-06 110.56043921202  5.18447813797038E-06 110.560439211992 0.890208315526274 -46.4969926219027 
! Gamma         0.720061990489974 1508.45582354101 0.720059236763687 1508.45590408022 
! Port Impedance         375.990935937447 0.195972726824969 375.912190705712 0.196038931861336 
116.7                          0.88566831762367 -56.9797097161843 9.1356045042418E-06 127.403004456379 9.13560450423894E-06 127.40300445638  0.888366933656963 -57.0825243271025 
! Gamma         0.71892782110874 1511.84929278465 0.71892506004041 1511.84937312481 
! Port Impedance         375.468629756681 0.195111402601478 375.389993817483 0.195177617212578 
116.8                          0.884332366706014 -67.4907421232698 1.47031220265051E-05 124.944293616472 1.4703122026502E-05 124.944293616472 0.88638391346136 -67.648189835995 
! Gamma         0.717801353752499 1515.23806147942 0.717798585358162 1515.23814162166 
! Port Impedance         374.949826075455 0.194259057349077 374.871298696403 0.194325280777655 
116.9                          0.883030894955932 -77.9867904577037 2.12540639944777E-05 116.283716987018 2.12540639944745E-05 116.283716987023 0.884282303992864 -78.1949171267668 
! Gamma         0.716682511141581 1518.62216109232 0.716679735435812 1518.62224103778 
! Port Impedance         374.434488869891 0.1934155673512  374.356069326123 0.193481798854573 
117                            0.881751611301471 -88.4689656728902 2.87235262379854E-05 105.134374187    2.8723526237982E-05 105.134374187002 0.882077902008045 -88.725162801744 
! Gamma         0.715571217057631 1522.00162276736 0.715568434066121 1522.00170251714 
! Port Impedance         373.922582622659 0.192580811083855 373.844270196733 0.19264704993362 
117.1                          0.880484085615829 -98.9380718950477 3.7187138986893E-05 92.7300026917806 3.71871389868889E-05 92.7300026917801 0.879760505011285 -99.2440897343452 
! Gamma         0.71446739635477 1525.37647733004 0.714464606096645 1525.37655688526 
! Port Impedance         373.41407231391  0.19175466916826 373.335866295702 0.19182091465    
117.2                          0.879219316969173 -109.394724893135 4.67883610185824E-05 79.5697443125187 4.6788361018582E-05 79.5697443125193 0.877234745252872 -109.761613094153 
! Gamma         0.713370974920292 1528.74675529183 0.713368177411048 1528.74683465357 
! Port Impedance         372.908923412417 0.190937024324679 372.830823099017 0.191003275737682 
117.3                          0.877949225145309 -119.83942890184 5.77285091699827E-05 65.8801131746562 5.77285091699827E-05 65.880113174659  0.874113116751185 -120.293356926122 
! Gamma         0.71228187965474 1532.11248685453 0.712279074910829 1532.11256602388 
! Port Impedance         372.407101866893 0.190127761327429 372.329106562508 0.190194017984405 
117.4                          0.876666091518402 -130.272630647623 7.02740410144855E-05 51.7662260753516 7.02740410144828E-05 51.7662260753536 0.869068148430134 -130.830049043451 
! Gamma         0.711200038459212 1535.47370191457 0.711197226497438 1535.4737808926  
! Port Impedance         371.908574097513 0.189326766961024 371.830683113367 0.189393028187831 
117.5                          0.875361889640545 -140.694762916191 8.47731103391583E-05 37.2695782041618 8.47731103391583E-05 37.2695782041618 0.860730770866268 -141.117377501669 
! Gamma         0.710125380217547 1538.83043006724 0.710122561054786 1538.83050885501 
! Port Impedance         371.413306987603 0.188533929977417 371.335519641839 0.18860019511279 
117.6                          0.874027355730665 -151.106287396052 0.000101680957161358 22.3919270058294 0.000101680957161356 22.3919270058285 0.857419993456358 -150.995310141477 
! Gamma         0.709057834778991 1542.18270061081 0.709055008432127 1542.18277920938 
! Port Impedance         370.921267875517 0.18774914105432 370.843583493104 0.187815409449567 
117.7                          0.872650479353302 -161.507747010504 0.00012159608912887 7.10455197068578 0.00012159608912887 7.10455197068714 0.858964274992437 -161.116819372211 
! Gamma         0.707997332941363 1545.53054255064 0.707994499427288 1545.53062096104 
! Port Impedance         370.432424546682 0.186972292754558 370.354842459314 0.187038563770704 
117.8                          0.871213686706406 -171.899841447093 0.000145310226843009 -8.65027125513914 0.000145310226843006 -8.65027125514062 0.859687464112074 -171.400405958375 
! Gamma         0.706943806434622 1548.87398460314 0.706940965770237 1548.87406282641 
! Port Impedance         369.946745225811 0.186203279486442 369.869264771843 0.186269552504489 
117.9                          0.869687879224581 177.716455427201 0.000173874449256366 -24.9633088294248 0.000173874449256364 -24.9633088294249 0.859560891758705 178.292718052449 
! Gamma         0.705897187904786 1552.21305519973 0.705894340106972 1552.21313323689 