! Touchstone file exported from HFSS 2020.2.4
!        File:           D:/Project/Deacon_v3/240214_MPW12_Gap_WG_Tester_D2A/Gap_WG_Tester_D2.aedt
!        Generated:      11:43:13 AM  Mar 20, 2025
!        Design:         Line
!        Project:        Gap_WG_Tester_D2
!        Setup:          Setup1
!        Solution:       Sweep
!
! Variables:
!        C_G = 0um
!        C_H = 0.5mm
!        Deembedding = 25.4mm
!        E_P = 133um
!        S_H1 = 260um
!        S_H2 = 13um
!        S_H3 = 8um
!        S_X = 30mm
!        S_X0 = 15mm
!        S_Y = 15mm
!        S_Y0 = 7.5mm
!        TL_G = 40um
!        TL_L = 12.1467848662796mm
!        TL_W = 240um
!        TR_L = 706.43026744077um
!        TR_L2 = 226.8691264263um
!        TR_L3 = 373.29154801399um
!        TR_P = 109.62537243288um
!        TR_W = 1597.2041747747um
!        TR_W2 = 282.226541747um
!        V_PBO = 20um
!        V_Pad = 40um
!        V_R = 20um
!        WG_L = 0.8255mm
!        WG_W = 1.651mm
!        th = 5um
!
!Data is not renormalized
# GHZ S MA
! Terminal data exported
! Port[1] = 1
! Port[2] = 2
110                            0.84540821080816 -40.4410442044944 0.00269345246241031 -149.141599350305 0.00269345246241031 -149.141599350305 0.848362281683068 -40.5378628128952 
! Gamma         0.816997910462314 1272.16761095487 0.816989916470604 1272.16740188133 
! Port Impedance         420.531180032082 0.281647032104142 420.517103392706 0.281654567704995 
110.1                          0.846710067655463 -51.7824846435499 0.00213667551825239 -147.900051082238 0.00213667551825239 -147.900051082238 0.849846943924501 -51.8948096313242 
! Gamma         0.815106901327009 1275.96231907776 0.815098887801024 1275.96211057708 
! Port Impedance         419.661570551084 0.27974657514933 419.647522970946 0.27975413480152 
110.2                          0.84794822035767 -63.1005000458358 0.00144066795258774 -141.695613428201 0.00144066795258774 -141.695613428201 0.851209475336272 -63.2340221121136 
! Gamma         0.813232578221219 1279.74920804987 0.813224545224679 1279.74900011736 
! Port Impedance         418.799676857047 0.277872218175942 418.785658078654 0.277879801346612 
110.3                          0.849138841256957 -74.3932783080479 0.000616739259245659 -120.13143565865 0.000616739259245666 -120.13143565865 0.852456162526348 -74.5544068227239 
! Gamma         0.811374714873583 1283.52834707867 0.811366662469599 1283.52813970973 
! Port Impedance         417.945392368133 0.276023472625404 417.931402137545 0.276031078793391 
110.4                          0.85030769214745 -85.658557464043 0.000468849964238241 7.78515056614497 0.000468849964238237 7.78515056614566 0.853595057970507 -85.8544273233497 
! Gamma         0.809533089269426 1287.29980441813 0.809525017520687 1287.29959760821 
! Port Impedance         417.098612523726 0.274199861666339 417.084650590487 0.27420749032187 
110.5                          0.851495732150218 -96.8936379910549 0.00120222609525864 41.3722339644533 0.00120222609525864 41.3722339644532 0.854638101485169 -97.1319847360298 
! Gamma         0.807707483544491 1291.06364738677 0.807699392517351 1291.06344113138 
! Port Impedance         416.25923473563  0.27240091985198 416.245300852704 0.272408570496378 
110.6                          0.852767424676447 -108.095545878783 0.00164879631694791 54.7293531705196 0.00164879631694792 54.7293531705188 0.855604899520014 -108.384275004891 
! Gamma         0.805897683902739 1294.81994238526 0.805889573654135 1294.81973667996 
! Port Impedance         415.427158340709 0.270626192789357 415.413252264414 0.270633864934752 
110.7                          0.854222135909303 -119.261528594427 0.00177413697699815 62.3219600544675 0.00177413697699815 62.3219600544673 0.856529329911077 -119.607652855963 
! Gamma         0.804103480496726 1298.56875491355 0.804095351084232 1298.56854975398 
! Port Impedance         414.602284554891 0.268875236819783 414.588406044839 0.268882929988839 
110.8                          0.856007341432089 -130.390202332819 0.00168579823732992 66.1489359617967 0.00168579823732992 66.1489359617966 0.85747077540904 -130.797598115101 
! Gamma         0.802324667339769 1302.31014958771 0.802316518825786 1302.30994496955 
! Port Impedance         413.784516428525 0.267147618710219 413.770665247558 0.267155332435862 
110.9                          0.858327511165606 -141.483791202385 0.00148117569981786 67.4918147562461 0.00148117569981787 67.4918147562461 0.858532249835931 -141.949034403323 
! Gamma         0.800561042226368 1306.04419015627 0.800552874670902 1306.04398607527 
! Port Impedance         412.973758803005 0.265442915355063 412.959934717138 0.265450649180223 
111                            0.861432332094271 -152.551732719282 0.00121992123624967 67.3686607818688 0.00121992123624967 67.3686607818688 0.85988645077419 -153.057566562907 
! Gamma         0.798812406635018 1309.7709395162  0.798804220097237 1309.77073596814 
! Port Impedance         412.169918268653 0.263760713487985 412.156121047013 0.263768466965343 
111.1                          0.865554829930429 -163.614803288248 0.000935552611880677 66.7150061261984 0.000935552611880675 66.7150061261985 0.861803238420987 -164.122689525533 
! Gamma         0.797078565643689 1313.4904597285  0.797070360182119 1313.49025670925 
! Port Impedance         411.372903123798 0.262100609403405 411.35913253857  0.262108382095143 
111.2                          0.870774581648869 -174.706230746884 0.000647944186526596 66.8902484495645 0.00064794418652659 66.8902484495645 0.864648899641652 -175.154184822345 
! Gamma         0.795359327846533 1317.20281203353 0.795351103519049 1317.20260953898 
! Port Impedance         410.582623335016 0.260462208687241 410.568879161386 0.260470000164812 
111.3                          0.87684618547395 174.136113709947 0.000372829038112913 71.8797721855441 0.000372829038112911 71.8797721855447 0.868786113616995 173.81923906487  
! Gamma         0.793654505272829 1320.90805686578 0.79364626213629 1320.90785489189 
! Port Impedance         409.798990498496 0.25884512595659 409.785272514597 0.25885293580048 
111.4                          0.883149558084827 162.887804299205 0.000154929349960189 107.383986386237 0.000154929349960189 107.383986386239 0.874301834207617 162.747447439519 
! Gamma         0.791963913308162 1324.60625386853 0.791955651411915 1324.60605241131 
! Port Impedance         409.021917802492 0.257248984607979 409.008225789349 0.257256812407486 
111.5                          0.888909037638769 151.55407975658  0.000229452310260261 -176.530910750978 0.00022945231026026 -176.530910750978 0.88068486247947 151.577746019753 
! Gamma         0.790287370617813 1328.297461908   0.790279090024614 1328.29726096356 
! Port Impedance         408.251319990819 0.255673416573878 408.237653732302 0.255681261926896 
111.6                          0.893559148652645 140.167527642314 0.000443565364093603 -163.714175529982 0.000443565364093607 -163.714175529982 0.886888901162865 140.292279235937 
! Gamma         0.788624699072262 1331.98173908726 0.788616399850566 1331.98153865164 
! Port Impedance         407.487113327375 0.254118062087162 407.473472610144 0.254125924599965 
111.7                          0.896940248218133 128.769100915604 0.000653268384501497 -163.996237275238 0.000653268384501498 -163.996237275237 0.891948547719574 128.924260364536 
! Gamma         0.786975723674754 1335.6591427598  0.786967405870698 1335.65894282917 
! Port Impedance         406.729215561633 0.252582569453211 406.715600175091 0.252590448740252 
111.8                          0.899216208318509 117.390638244221 0.000845367413232657 -167.686101328819 0.000845367413232659 -167.686101328819 0.895512081438191 117.530678180047 
! Gamma         0.785340272490848 1339.32972954278 0.785331936158688 1339.32953011336 
! Port Impedance         405.977545895097 0.251066594829383 405.963955631337 0.251074490513093 
111.9                          0.900680666576048 106.049332606166 0.00101762496343429 -172.839254277143 0.0010176249634343 -172.839254277143 0.897780912174557 106.156831585309 
! Gamma         0.783718176579896 1342.99355533003 0.78370982177397 1342.99335639807 
! Port Impedance         405.23202494866  0.24956980201157 405.218459602427 0.249577713722165 
112                            0.901615646880933 94.7507625360407 0.00116988299653923 -178.817048241417 0.00116988299653923 -178.817048241417 0.899156981970835 94.8248042548236 
! Gamma         0.782109269928391 1346.65067530471 0.782100896702675 1346.6504768665  
! Port Impedance         404.492574730874 0.248091862227586 404.479034099509 0.248099789602877 
112.1                          0.90223608686175 83.4939392759223 0.00130273709044898 174.658011882048 0.00130273709044899 174.658011882048 0.900000982161353 83.539724094647  
! Gamma         0.780513389385107 1350.30114395168 0.780504997793153 1350.30094600357 
! Port Impedance         403.75911860706  0.246632453937126 403.745602490461 0.246640396622338 
112.2                          0.902686790773939 72.2751112688527 0.00141714039281612 167.730905569435 0.00141714039281612 167.730905569435 0.900562200072493 72.2986371899697 
! Gamma         0.778930374598001 1353.94501506966 0.778921964692919 1353.94481760803 
! Port Impedance         403.031581269267 0.245191262638066 403.018089469842 0.245199220285662 
112.3                          0.90305807199793 61.0898825344272 0.00151422334141358 160.488246037296 0.00151422334141358 160.488246037296 0.900991852231014 61.0960954315076 
! Gamma         0.777360067952792 1357.58234178305 0.777351639787253 1357.58214480434 
! Port Impedance         402.309888707033 0.24376798067887 402.296421029657 0.243775952948374 
112.4                          0.903403050448836 49.9341627375845 0.00159519067105689 152.987345692319 0.00159519067105689 152.987345692319 0.901374603943647 49.9266714815549 
! Gamma         0.775802314513193 1361.21317655353 0.775793868139429 1361.21298005422 
! Port Impedance         401.593968178924 0.242362307076874 401.5805244309   0.242370293634708 
112.5                          0.903751148029598 38.8044877403513 0.00166125670716188 145.269241910037 0.00166125670716187 145.269241910037 0.901754756870864 38.7857945070232 
! Gamma         0.774256961962714 1364.8375711914  0.774248497432529 1364.83737516801 
! Port Impedance         400.88374818484  0.240973947342252 400.870328175854 0.240981947861571 
112.6                          0.904117301552073 27.6980525393593 0.00171360391666054 137.365156098097 0.00171360391666054 137.365156098097 0.902153507158813 27.6698689595728 
! Gamma         0.772723860548019 1368.45557686667 0.772715377912788 1368.45538131574 
! Port Impedance         400.17915843905  0.239602613307448 400.16576198113  0.239610627467979 
112.7                          0.904507855744111 16.6126345593707 0.00175335707755706 129.299967652016 0.00175335707755706 129.299967652016 0.90257929561613 16.5761481171448 
! Gamma         0.771202863023759 1372.06724411988 0.771194362334441 1372.06704903803 
! Port Impedance         399.480129843929 0.238248022961873 399.466756751409 0.238256050449766 
112.8                          0.904924203058347 5.5464889286409  0.00178156832577145 121.094216608989 0.00178156832577145 121.094216608989 0.903033746666337 5.50255604602725 
! Gamma         0.769693824598858 1375.67262287278 0.769685305905996 1375.67242825664 
! Port Impedance         398.786594464405 0.236909900291707 398.773244553882 0.236917940799379 
112.9                          0.905364986205146 -5.50175128595876 0.00179920979696671 112.765333031032 0.00179920979696671 112.765333031032 0.903514999695558 -5.55247469631892 
! Gamma         0.768196602884191 1379.27176243863 0.768188066237921 1379.2715682849  
! Port Impedance         398.098485503049 0.235587975124588 398.085158593351 0.235596028350582 
113                            0.905827412436044 -16.5331591964187 0.00180717148765434 104.328438404967 0.00180717148765433 104.328438404967 0.904019551221379 -16.5901328225159 
! Gamma         0.766711057841627 1382.86471153246 0.766702503291682 1382.86451783784 
! Port Impedance         397.415737275835 0.23428198297905 397.402433187978 0.234290048627892 
113.1                          0.906308028093307 -27.5485811829663 0.00180626259949112 95.7969002499219 0.00180626259949112 95.7969002499219 0.904543259873045 -27.6113265259267 
! Gamma         0.765237051734375 1386.45151828094 0.765228479330093 1386.45132504219 
! Port Impedance         396.738285188509 0.232991664918522 396.725003745663 0.23299974270058 
113.2                          0.906803168423365 -38.5486889447816 0.00179721510758842 87.1827402073263 0.00179721510758842 87.1827402073264 0.905081884401172 -38.6167560215994 
! Gamma         0.763774449078619 1390.03223023216 0.763765858868945 1390.03203744608 
! Port Impedance         396.066065713578 0.231716767409735 396.052806741032 0.23172485704109 
113.3                          0.907309213459864 -49.5340193409601 0.00178068865456695 78.4969541662494 0.00178068865456696 78.4969541662494 0.905631362847381 -49.6069666083438 
! Gamma         0.762323116596378 1393.60689436515 0.762314508629872 1393.60670202857 
! Port Impedance         395.399016367884 0.230457042185392 395.38577969301  0.230465143387704 
113.4                          0.907822729082369 -60.5050047121926 0.00175727614439946 69.7497808349242 0.00175727614439946 69.7497808349244 0.906187949619876 -60.5823874034783 
! Gamma         0.760882923169569 1397.17555709922 0.760874297494412 1397.17536520901 
! Port Impedance         394.737075690751 0.229212246110942 394.723861142973 0.229220358611322 
113.5                          0.908340540996826 -71.4619959300384 0.00172750961370002 60.9509433885205 0.00172750961370001 60.9509433885209 0.906748276039037 -71.5433596774742 
! Gamma         0.759453739795241 1400.7382643031  0.759445096459237 1400.73807285617 
! Port Impedance         394.080183222688 0.227982141055318 394.066990633444 0.227990264586207 
113.6                          0.908859770468926 -82.4052799420899 0.00169186610911336 52.1098829200114 0.00169186610911335 52.1098829200116 0.907309371261978 -82.4901576655871 
! Gamma         0.758035439541922 1404.29506130388 0.758026778592505 1404.29487029716 
! Port Impedance         393.428279484631 0.226766493765516 393.415108687344 0.226774628064563 
113.7                          0.909377849249908 -93.3350931624004 0.00165077341119255 43.2360002193982 0.00165077341119255 43.2360002193982 0.907868664426843 -93.4230039244333 
! Gamma         0.756627897507078 1407.84599289577 0.756619218991318 1407.84580232625 
! Port Impedance         392.781305957703 0.225565075744873 392.768156787748 0.225573220554816 
113.8                          0.909892524286365 -104.251631719315 0.00160461552889094 34.3389229634802 0.00160461552889094 34.3389229634802 0.908423979848037 -104.34208070617 
! Gamma         0.755230990775625 1411.39110334871 0.75522229474023 1411.39091321339 
! Port Impedance         392.139205063488 0.224377663134911 392.126077358158 0.224385818203467 
113.9                          0.910401858706782 -115.155059311646 0.00155373795424088 25.428818542582  0.00155373795424088 25.4288185425821 0.908973532070608 -115.247538392993 
! Gamma         0.753844598379473 1414.93043641674 0.753835884870797 1414.93024671267 
! Port Impedance         391.50192014479  0.223204036600652 391.488813743271 0.223212201680403 
114                            0.910904233146743 -126.045513224758 0.00149845272283462 16.5167789432773 0.00149845272283463 16.5167789432773 0.909515924847639 -126.139501725208 
! Gamma         0.75246860125808 1418.46403534627 0.752459870322124 1418.46384607051 
! Port Impedance         390.869395446876 0.22204398121926 390.856310190211 0.222052156067546 
114.1                          0.911398350073148 -136.923108906326 0.00143904338150606 7.61531452406417 0.00143904338150606 7.6153145240641  0.910050156687508 -137.018074330638 
! Gamma         0.751102882219963 1421.9919428841  0.751094133902384 1421.99175403378 
! Port Impedance         390.241576099177 0.220897286371918 390.228511830241 0.220905470750727 
114.2                          0.911883243012422 -147.787943383439 0.00137577003113294 -1.26098962392455 0.00137577003113294 -1.26098962392455 0.910575635000035 -147.883341893887 
! Gamma         0.749747325905175 1425.5142012854  0.749738560251287 1425.51401285765 
! Port Impedance         389.618408097446 0.219763745638816 389.605364660913 0.219771939314689 
114.3                          0.912358292242165 -158.640097707874 0.00130887470529058 -10.0945738319522 0.00130887470529058 -10.0945738319521 0.911092200764084 -158.735374169881 
! Gamma         0.748401818748676 1429.03085232138 0.748393035803456 1429.03066431337 
! Port Impedance         388.999838286344 0.218643156697168 388.986815528664 0.218651359441093 
114.4                          0.912823248449146 -169.479638534719 0.0012385874895846 -18.8636351598175 0.0012385874895846 -18.8636351598175 0.911600165895039 -169.574225929425 
! Gamma         0.747066248944609 1432.54193728693 0.747057448752702 1432.54174969587 
! Port Impedance         388.385814342461 0.217535321222131 388.372812111827 0.217543532809448 
114.5                          0.913278265998864 179.693381137829 0.00116513402556067 -27.5402904091143 0.00116513402556067 -27.5402904091143 0.912100366046933 179.600063190724 
! Gamma         0.745740506411442 1436.04749700802 0.74573168901716 1436.04730983115 
! Port Impedance         387.776284757741 0.216440044790562 387.763302904066 0.216448265000866 
114.6                          0.913723947767942 168.878922121827 0.00108874545816701 -36.08784515709  0.00108874545816701 -36.0878451570898 0.912594232424427 168.787470091902 
! Gamma         0.744424482757936 1439.54757184905 0.74441564820527 1439.54738508362 
! Port Impedance         387.171198823313 0.215357136787483 387.1582371982   0.215365365404536 
114.7                          0.914161403924312 158.07696023909  0.00100967263397909 -44.4566227239079 0.00100967263397908 -44.4566227239077 0.913083887319898 157.987991200401 
! Gamma         0.74311807124995 1443.04220171992 0.743109219582568 1443.04201536323 
! Port Impedance         386.570506613708 0.214286410315209 386.557565070426 0.214294647126843 
114.8                          0.914592327563451 147.287488849226 0.000928207755886295 -52.5774129752817 0.000928207755886295 -52.5774129752817 0.913572269537953 147.201647606678 
! Gamma         0.741821166778021 1446.5314260831  0.741812298039278 1446.53124013248 
! Port Impedance         385.974158971459 0.213227682105011 385.961237364916 0.213235926903043 
114.9                          0.915019090639094 136.510523170977 0.000844719412655552 -60.3508824564296 0.000844719412655552 -60.3508824564294 0.914063297585621 136.428493290012 
! Gamma         0.74053366582573 1450.01528396046 0.740524780058665 1450.01509841326 
! Port Impedance         385.382107492059 0.212180772431256 385.369205678779 0.212189025011407 
115                            0.915444863992884 125.746107128355 0.000759712365376232 -67.6299669473053 0.000759712365376227 -67.6299669473052 0.914562080272216 125.668627930172 
! Gamma         0.739255466438806 1453.49381394004 0.73924656368615 1453.49362879363 
! Port Impedance         384.794304509291 0.211145505027948 384.781422347387 0.211153765189752 
115.1                          0.915873765082034 114.994323853455 0.000673934862566301 -74.1898982141404 0.000673934862566306 -74.1898982141406 0.915075185532429 114.922216719633 
! Gamma         0.737986468194967 1456.96705418259 0.737977548499147 1456.9668694344  
! Port Impedance         384.210703080891 0.210121707007574 384.197840430042 0.2101299745543  
115.2                          0.916311035392483 104.255311586087 0.000588580503105643 -79.6767652452858 0.000588580503105645 -79.6767652452864 0.9156109771483  104.18952107732  
! Gamma         0.736726572174466 1460.43504242814 0.736717635577607 1460.4348580756  
! Port Impedance         383.631256974555 0.209109208782191 383.618413695984 0.209117483520764 
115.3                          0.916763244714561 93.529287636886  0.000505682135836851 -83.5226254783008 0.000505682135836848 -83.5226254783002 0.916180021410502 93.4709466154059 
! Gamma         0.735475680931325 1463.89781600226 0.735466727475258 1463.89763204282 
! Port Impedance         383.055920654278 0.208107843986696 383.043096610727 0.208116125727618 
115.4                          0.917238507792118 82.8165844810601 0.000428883086128153 -84.831912509023 0.000428883086128155 -84.8319125090242 0.91679554164149 82.7671187590692 
! Gamma         0.734233698465245 1467.35541182234 0.734224728191503 1467.3552282535  
! Port Impedance         382.484649267007 0.207117449404181 382.471844322711 0.207125737961456 
115.5                          0.917746672844401 72.1177041152635 0.000364794762658596 -82.3725603440829 0.000364794762658596 -82.3725603440815 0.917473834464859 72.079003037282  
! Gamma         0.733000530194155 1470.80786640367 0.732991543143989 1470.80768322295 
! Port Impedance         381.917398629603 0.206137864893339 381.904612650275 0.2061461600844  
115.6                          0.918299386129613 61.4333996880409 0.000324338556489153 -75.2683163572653 0.000324338556489152 -75.2683163572646 0.918234403298095 61.4080974916803 
! Gamma         0.731776082927412 1474.25521586547 0.731767079141786 1474.25503307041 
! Port Impedance         381.354125216111 0.205168933317828 381.341358068914 0.205177234963465 
115.7                          0.91890982277823 50.764796914661  0.000320192262947485 -65.0907422131896 0.000320192262947485 -65.0907422131886 0.919099187174791 50.7567395067687 
! Gamma         0.730560264839604 1477.69749593674 0.730551244359207 1477.69731352491 
! Port Impedance         380.79478614532  0.204210500477561 380.782037698848 0.204218808401848 
115.8                          0.919591647194731 40.1135704782109 0.000357027482719314 -56.3561484866624 0.000357027482719316 -56.356148486663 0.920089391750852 40.1285845374935 
! Gamma         0.729352985444957 1481.13474196203 0.729343948310211 1481.13455993102 
! Port Impedance         380.239339168609 0.203262415041829 380.226609292866 0.20327072907206 
115.9                          0.920356335886889 29.4821873673162 0.000427421894328592 -52.1909174140117 0.000427421894328596 -52.1909174140111 0.921216512155471 29.5293058523945 
! Gamma         0.72815415557233 1484.56698890712 0.728145101823403 1484.56680725454 
! Port Impedance         379.687742658073 0.202324528484233 379.675031224453 0.202332848450851 
116                            0.921207250496057 18.8742050930444 0.000520734553357387 -52.4871146137795 0.000520734553357392 -52.4871146137795 0.922460344814796 18.9674416702468 
! Gamma         0.726963687340771 1487.99427136453 0.726954617017607 1487.99409008803 
! Port Impedance         379.139955594919 0.201396695019345 379.127262476182 0.201405020755881 
116.1                          0.922127806607433 8.29453163538858 0.000629517557498552 -56.0099018227007 0.000629517557498552 -56.0099018227004 0.923721274877347 8.45480354634716 
! Gamma         0.725781494135632 1491.41662355903 0.725772407278017 1491.41644265629 
! Port Impedance         378.595937558119 0.200478771541058 378.583262628375 0.200487102884064 
116.2                          0.923060489854699 -2.25065448337506 0.000749682074665883 -61.7083296693927 0.000749682074665883 -61.7083296693927 0.924735060026126 -1.99562599316079 
! Gamma         0.724607490585219 1494.83407935296 0.724598387232956 1494.83389882165 
! Port Impedance         378.055648713335 0.199570617562569 378.042991848023 0.199578954351557 
116.3                          0.923876392625006 -12.7550295556884 0.000879224991115194 -68.8983930361893 0.000879224991115194 -68.8983930361893 0.924982068579407 -12.3789286179955 
! Gamma         0.723441592537966 1498.24667225144 0.723432472731422 1498.24649208929 
! Port Impedance         377.519049802073 0.198672095157941 377.506410877943 0.198680437235323 
116.4                          0.924348653867676 -23.2154082533309 0.00101734267915391 -77.1623402826399 0.00101734267915391 -77.1623402826399 0.923769306534781 -22.7176305323024 
! Gamma         0.722283717040121 1501.65443540762 0.722274580821601 1501.65425561235 
! Port Impedance         376.986102131099 0.197783068905209 376.97348102619  0.197791416116237 
116.5                          0.924172825164445 -33.6375944937781 0.00116397626043942 -86.2482510900588 0.00116397626043942 -86.2482510900588 0.920750693366818 -33.0740429426128 
! Gamma         0.721133782313925 1505.05740162762 0.721124629721837 1505.05722219702 
! Port Impedance         376.456767562078 0.196903405830969 376.444164155704 0.196911758023678 
116.6                          0.923092427608586 -44.0414627925798 0.00131960876459415 -96.0062031201263 0.00131960876459415 -96.0062031201263 0.916539998557622 -43.5168699720516 
! Gamma         0.719991707736281 1508.45560337561 0.719982538795862 1508.45542430745 
! Port Impedance         375.931008501452 0.196032975356412 375.918422674179 0.196041332381562 
116.7                          0.921100938661731 -54.4572168435546 0.00148520182603192 -106.351381870528 0.00148520182603192 -106.351381870528 0.91236562952046 -54.062240660725 
! Gamma         0.718857413817889 1511.84907277859 0.71884822856927 1511.84889407066 
! Port Impedance         375.408787890535 0.19517164924476 375.396219524168 0.195180010955783 
116.8                          0.91852373363871 -64.9100543985657 0.00166222013220055 -117.243337180188 0.00166222013220054 -117.243337180188 0.909068604428972 -64.6721441800408 
! Gamma         0.717730822182838 1515.23784163124 0.717721620666781 1515.23766328138 
! Port Impedance         374.890069195835 0.194319301550062 374.877518173395 0.194327667803007 
116.9                          0.915839721739223 -75.4064321661576 0.00185272578020071 -128.674665362382 0.00185272578020071 -128.674665362382 0.906793728525102 -75.300042444635 
! Gamma         0.716611855548657 1518.62194140059 0.716602637803758 1518.62176340665 
! Port Impedance         374.374816399577 0.193475808567308 374.36228260529  0.19348417922079 
117                            0.913420411207892 -85.9355111649988 0.00205954405482357 -140.665412919922 0.00205954405482358 -140.665412919922 0.90532835640208 -85.9170836465907 
! Gamma         0.715500437706784 1522.00140323066 0.715491203770709 1522.0012255905  
! Port Impedance         373.86299399045  0.192641048783822 373.850477309725 0.192649423698967 
117.1                          0.911426966961544 -96.4803852282153 0.00228651510456841 -153.261270017167 0.00228651510456841 -153.261270017167 0.904411433967879 -96.5113680728676 
! Gamma         0.714396493503473 1525.37625794698 0.714387243413394 1525.37608065849 
! Port Impedance         373.354566954536 0.1918149028319  373.342067273953 0.191823281872299 
117.2                          0.909863172639731 -107.026778150832 0.00253885539474438 -166.53463563036 0.00253885539474438 -166.53463563036 0.903843951667284 -107.08028183939 
! Gamma         0.713299948821122 1528.74653606101 0.713290682613847 1528.74635912211 
! Port Impedance         372.849500766456 0.190997253442646 372.837017973743 0.191005636474305 
117.3                          0.908662890693498 -117.56564170686 0.00282365560113234 179.411758824956 0.00282365560113234 179.411758824956 0.90349683142271 -117.625068983718 
! Gamma         0.712210730559989 1532.11226777457 0.712201448272   1532.11209118319 
! Port Impedance         372.347761380688 0.190187985400992 372.335295364713 0.190196372292281 
117.4                          0.90774714006714 -128.092346458569 0.0031505230199226 164.438614243361 0.0031505230199226 164.438614243361 0.903292278284654 -128.148196210848 
! Gamma         0.71112876662034 1535.47348298413 0.711119468287766 1535.47330673821 
! Port Impedance         371.84931522309  0.189386985501838 371.836865873839 0.189395376123449 
117.5                          0.907048179515301 -138.605130556365 0.00353229222034199 148.361051844124 0.00353229222034199 148.361051844124 0.903185484804498 -138.65230524645 
! Gamma         0.71005398588502 1538.83021128496 0.710044671543516 1538.83003538248 
! Port Impedance         371.354129182593 0.188594142507306 371.341696391159 0.188602536732204 
117.6                          0.906515203400731 -149.103872651495 0.0039854583868381 130.937173733584 0.0039854583868381 130.937173733584 0.903151843267717 -149.139881475021 
! Gamma         0.708986318202574 1542.18248197537 0.708976987886948 1542.18230641432 
! Port Impedance         370.862170603076 0.187809347105063 370.849754261641 0.187817744808443 
117.7                          0.9061127262907  -159.589339037146 0.00452924783492169 111.857008611798 0.0045292478349217 111.857008611799 0.903178846742588 -159.613209067122 
! Gamma         0.707925694371533 1545.53032406072 0.707916348114307 1545.5301488391  
! Port Impedance         370.373407275414 0.18703249186768 370.361007277234 0.187040892926924 
117.8                          0.905817020803425 -170.062783349562 0.00518050259413483 90.7428002727333 0.00518050259413483 90.7428002727332 0.903261050922661 -170.074429228929 
! Gamma         0.706872046128472 1548.87376625743 0.706862683953974 1548.87359137328 
! Port Impedance         369.887807429694 0.186263471213012 369.875423669086 0.186271875507643 
117.9                          0.905612581238082 179.474237253826 0.00593865625038844 67.1931993728739 0.00593865625038842 67.1931993728737 0.903396823544581 179.474369990945 
! Gamma         0.705825306116839 1552.21283699693 0.70581592805039 1552.21266244832 
! Port Impedance         369.405339727597 0.185502181365541 369.392972099923 0.185510588777186 