! Touchstone file exported from HFSS 2020.2.4
!        File:           D:/Project/Deacon_v3/240214_MPW12_Gap_WG_Tester_D2A/Gap_WG_Tester_D2.aedt
!        Generated:      11:45:36 AM  Mar 20, 2025
!        Design:         Thru
!        Project:        Gap_WG_Tester_D2
!        Setup:          Setup1
!        Solution:       Sweep
!
! Variables:
!        C_G = 0um
!        C_H = 0.5mm
!        E_P = 133um
!        S_H1 = 260um
!        S_H2 = 13um
!        S_H3 = 8um
!        S_X = 30mm
!        S_X0 = 15mm
!        S_Y = 15mm
!        S_Y0 = 7.5mm
!        TL_G = 40um
!        TL_L = 9.64678486627962mm
!        TL_W = 240um
!        TR_L = 706.43026744077um
!        TR_L2 = 226.8691264263um
!        TR_L3 = 373.29154801399um
!        TR_P = 109.62537243288um
!        TR_W = 1597.2041747747um
!        TR_W2 = 282.226541747um
!        V_PBO = 20um
!        V_Pad = 40um
!        V_R = 20um
!        WG_L = 0.8255mm
!        WG_W = 1.651mm
!        th = 5um
!
!Data is not renormalized
# GHZ S MA
! Terminal data exported
! Port[1] = 1
! Port[2] = 2
110                            0.882899787892435 135.63085384528  0.00273766559094006 76.1973989618989 0.00273766559094006 76.1973989618989 0.886100053048817 135.211572221757 
! Gamma         0.817008633395984 1272.16775854348 0.816995869088354 1272.16744369704 
! Port Impedance         420.512305383117 0.281650262653018 420.524466849125 0.281662341255442 
110.1                          0.885259406977945 135.416947410876 0.00278609006052551 76.5140467496704 0.00278609006052552 76.5140467496702 0.889113877531953 135.020487045376 
! Gamma         0.815117650956669 1275.96246629428 0.815104852641334 1275.96215230229 
! Port Impedance         419.642734041679 0.279749850765736 419.654869892303 0.27976186505631 
110.2                          0.887597901889879 135.199208078377 0.00283725461287456 76.8541170319232 0.00283725461287457 76.8541170319233 0.892032761845707 134.826336063365 
! Gamma         0.813243354463617 1279.74935489742 0.81323052225761 1279.74904175289 
! Port Impedance         418.78087815426  0.277875538061129 418.792988619663 0.277887488906054 
110.3                          0.889914370388191 134.977600051611 0.00289141694600582 77.2205807498944 0.00289141694600584 77.2205807498946 0.894857163948464 134.628768967158 
! Gamma         0.811385517646207 1283.52849356031 0.811372651665398 1283.52818125634 
! Port Impedance         417.926631143551 0.276026835996658 417.93871645067  0.276038724245211 
110.4                          0.89220789912041 134.752086800066 0.00294886707993382 77.6168415590303 0.00294886707993384 77.6168415590304 0.897588000953136 134.427458053251 
! Gamma         0.809543918490667 1287.2999505369  0.80953101884978 1287.29963906669 
! Port Impedance         417.079888453376 0.274203267756607 417.091948825983 0.274215094241665 
110.5                          0.89447756420984 134.522631059545 0.00300993221846335 78.0468131956589 0.00300993221846336 78.0468131956589 0.900226596889124 134.222099924146 
! Gamma         0.807718339137712 1291.06379314566 0.807705405950349 1291.06348250249 
! Port Impedance         416.240547499898 0.272404367909511 416.252583158664 0.272416133448044 
110.6                          0.896722431876614 134.2891948352   0.00307498240293455 78.5150134195576 0.00307498240293457 78.5150134195578 0.902774628731047 134.01241662775  
! Gamma         0.805908565783169 1294.8200877872  0.805895599161826 1294.81977796445 
! Port Impedance         415.408507624256 0.27062968207734 415.420518786811 0.27064138747088 
110.7                          0.898941559088847 134.051739407209 0.0031444370695103 79.0266786551107 0.0031444370695103 79.0266786551111 0.905234072110675 133.798156273464 
! Gamma         0.804114388581496 1298.56889996146 0.804101388637582 1298.5685909526  
! Port Impedance         414.58367004658  0.268878766616004 414.595656927566 0.268890412651089 
110.8                          0.901133994240496 133.810225339353 0.00321877261769037 79.587904601881  0.0032187726176904 79.5879046018814 0.907607147950654 133.579093173081 
! Gamma         0.802335601552087 1302.31029428447 0.802322568395942 1302.30998608303 
! Port Impedance         413.765937821336 0.267151188306716 413.777900632467 0.26716277575531 
110.9                          0.903298777851743 133.564612490787 0.00329853107547658 80.2058195745205 0.0032985310754766 80.2058195745209 0.909896271060788 133.355027561254 
! Gamma         0.800572002488274 1306.04433450471 0.800558936229186 1306.04402710433 
! Port Impedance         412.955215793965 0.265446524057795 412.967154744083 0.26545805367769 
111                            0.905434943286929 133.314860031298 0.00338432989031162 80.8887992602303 0.00338432989031165 80.8887992602307 0.91210400153218 133.125784953938 
! Gamma         0.798823392868933 1309.7710835191  0.798810293615157 1309.77077691351 
! Port Impedance         412.15141055876  0.263764360616508 412.163325853887 0.263775833151706 
111.1                          0.90754151748413 133.060926460334 0.00347687275740111 81.6467340668335 0.00347687275740114 81.646734066834  0.914232999561884 132.891215204241 
! Gamma         0.797089577772606 1313.49060338865 0.797076445631381 1313.49029757162 
! Port Impedance         411.354430417949 0.262104294290553 411.366322261339 0.262115710471628 
111.2                          0.909617521689499 132.802769630138 0.00357696117146498 82.4913634044096 0.00357696117146501 82.4913634044099 0.916285984149093 132.651191313978 
! Gamma         0.795370365794058 1317.20295535363 0.795357200871622 1317.20265031905 
! Port Impedance         410.564185341939 0.260465930678818 410.576053934131 0.260477291223267 
111.3                          0.911661972188435 132.54034677328  0.00368550597382361 83.4366952122295 0.00368550597382365 83.4366952122301 0.918265695929523 132.405608056299 
! Gamma         0.793665568963182 1320.90819984853 0.793652371364788 1320.90789559035 
! Port Impedance         409.78058693068  0.258848884411067 409.792432469546 0.25886019002364 
111.4                          0.913673881024463 132.273614534928 0.00380353742589491 84.4995338447474 0.00380353742589494 84.4995338447482 0.920174864261235 132.154380460557 
! Gamma         0.79197500266618 1324.60639651658 0.791961772496114 1324.60609302884 
! Port Impedance         409.003548376119 0.257252778896201 409.015371056915 0.25726403026922 
111.5                          0.915652256695481 132.002529010163 0.00393221103662405 85.7001448728624 0.00393221103662409 85.7001448728628 0.922016178544996 131.897442205526 
! Gamma         0.790298485568944 1328.29760422398 0.790285222930538 1328.29730150078 
! Port Impedance         408.232984425702 0.255677246078777 408.244784441114 0.255688443892445 
111.6                          0.917596104815675 131.727045786689 0.00407280410444683 87.0630907009056 0.00407280410444688 87.0630907009062 0.923792263655675 131.63474396148  
! Gamma         0.788635839542556 1331.98188107375 0.788622544538203 1331.98157910927 
! Port Impedance         407.468811346891 0.254121926203477 407.480588887082 0.254133071126167 
111.7                          0.919504428729982 131.447119993249 0.00422669403295636 88.61827419561   0.00422669403295639 88.6182741956107 0.925505659277415 131.366251715856 
! Gamma         0.786986889590853 1335.65928441935 0.786973562322025 1335.65898320785 
! Port Impedance         406.710946892663 0.252586467587215 406.722702145318 0.252597560275758 
111.8                          0.921376230066411 131.162706354093 0.00439530284721436 90.4022242588763 0.00439530284721441 90.4022242588769 0.92715880287276 131.091945111495 
! Gamma         0.785351463779983 1339.32987087792 0.785338104347242 1339.32957041372 
! Port Impedance         405.959310267961 0.25107052639862 405.971043418332 0.251081567498572 
111.9                          0.923210509209926 130.873759249813 0.00457998126883161 92.4596377243346 0.00457998126883166 92.4596377243356 0.928754015972197 130.811815820995 
! Gamma         0.78372939316988 1342.99369634326 0.783716001672892 1342.99339662075 
! Port Impedance         405.213822097065 0.249573766444594 405.225533328013 0.249584756590502 
112                            0.925006265679778 130.580232784904 0.00478178780289446 94.8451361949056 0.0047817878028945 94.8451361949068 0.930293493443122 130.52586597559  
! Gamma         0.782120511747607 1346.65081599848 0.782107088285159 1346.65051701214 
! Port Impedance         404.474404391847 0.248095858963709 404.486093883887 0.248106798779364 
112.1                          0.926762498390358 130.282080862355 0.00500109094167219 97.6250657209585 0.00500109094167224 97.6250657209594 0.931779295383215 130.234106662374 
! Gamma         0.780524656362504 1350.30128432843 0.780511201032515 1350.30098607278 
! Port Impedance         403.740980520898 0.246636482426176 403.752648452238 0.246647372524852 
112.2                          0.928478205773559 129.979257265632 0.00523688542413035 100.878891421245 0.0052368854241304 100.878891421246 0.933213341279999 129.936556499611 
! Gamma         0.778941666663086 1353.94515513178 0.778928179562619 1353.94485760142 
! Port Impedance         403.013475179477 0.245195322340144 403.025121726059 0.245206163324843 
112.3                          0.930152385738531 129.671715748395 0.00548567618124651 104.699206510068 0.00548567618124656 104.69920651007  0.934597406083236 129.633240296324 
! Gamma         0.777371385035621 1357.58248153292 0.777357866260899 1357.58218472252 
! Port Impedance         402.291814360279 0.243772071064119 402.303439695819 0.243782863527794 
112.4                          0.93178403544236 129.359410132301 0.00573978569305759 109.188454138302 0.00573978569305762 109.188454138304 0.935933117847505 129.324187799387 
! Gamma         0.775813656544364 1361.21331599349 0.775800106190782 1361.21301989778 
! Port Impedance         401.575925324976 0.242366427625255 401.587529621002 0.242377172151031 
112.5                          0.933372150842682 129.042294413297 0.00598508933587234 114.449144885714 0.00598508933587235 114.449144885716 0.937221956616685 129.009432528879 
! Gamma         0.774268328873363 1364.83771032377 0.774254747035498 1364.83741493754 
! Port Impedance         400.865736576518 0.24097809754332 400.87732000241  0.240988794704715 
112.6                          0.93491572600056 128.720322876803 0.00619868816095651 120.563219456512 0.0061986881609565 120.563219456513 0.938465254238177 128.689010700461 
! Gamma         0.77273525226981 1368.45571569372 0.772721639041434 1368.45542101183 
! Port Impedance         400.161177832172 0.239606792660137 400.172740555196 0.239617443021261 
112.7                          0.936413752098896 128.393450222266 0.00634809647001779 127.557298612661 0.00634809647001776 127.557298612662 0.939664194811095 128.362960232054 
! Gamma         0.771214279488879 1372.06738264389 0.771200634962972 1372.06708866124 
! Port Impedance         399.462179997269 0.23825223097429 399.473722182613 0.238262835090055 
112.8                          0.937865216138413 128.061631697632 0.00639480062473554 135.357780637162 0.00639480062473549 135.357780637164 0.940819815487823 128.03131983094  
! Gamma         0.769705265740008 1375.67276109596 0.769691590008771 1375.67246780755 
! Port Impedance         398.768675139634 0.236914136480924 398.780196950447 0.236924694897237 
112.9                          0.939269099269556 127.724823244367 0.00630465183630008 143.755180383222 0.00630465183630001 143.755180383223 0.941933007361062 127.694128156684 
! Gamma         0.768208068634582 1379.27190036321 0.768194361789444 1379.27160776406 
! Port Impedance         398.080596464696 0.235592239016448 398.092098062119 0.2356027522704  
113                            0.940624374714505 127.382981653822 0.0060628073565324 152.410610509734 0.00606280735653232 152.410610509735 0.943004516177826 127.351423054875 
! Gamma         0.766722548134972 1382.8648491606  0.766708810266604 1382.86455724581 
! Port Impedance         397.397878291233 0.234286274107971 397.409359834434 0.234296742728024 
113.1                          0.941930005228877 127.036064735895 0.00568380968925595 160.9240577284   0.00568380968925587 160.924057728401 0.944034942626699 127.003240856593 
! Gamma         0.765248566504884 1386.4516556148  0.76523479770321 1386.45136437952 
! Port Impedance         396.720456027753 0.232995982827307 396.731917673962 0.233006407333476 
113.2                          0.943184940047239 126.684031501216 0.00520760025527007 168.938060604132 0.00520760025527 168.938060604133 0.945024741943997 126.649615738743 
! Gamma         0.763785988260991 1390.03236727386 0.763772188615196 1390.03207671331 
! Port Impedance         396.04826614948  0.231721111649394 396.059708054018 0.231731492553419 
113.3                          0.944388111250428 126.326842358377 0.0046837391790141 176.21738721286  0.00468373917901405 176.21738721286  0.94597422257758 126.290579140932 
! Gamma         0.762334680125794 1393.6070311168  0.76232084972434 1393.60674122624 
! Port Impedance         395.381246175928 0.23046141231496 395.392668492241 0.230471750120479 
113.4                          0.945538429485335 125.964459328177 0.00415554565489925 -177.331790797154 0.00415554565489924 -177.331790797154 0.946883543632484 125.926159235509 
! Gamma         0.760894510981691 1397.17569356291 0.760880649912321 1397.17540433764 
! Port Impedance         394.719334649052 0.229216641697303 394.730737528741 0.229226936900017 
113.5                          0.946634778959302 125.596846277388 0.00365244865708949 -171.691210854897 0.00365244865708946 -171.691210854897 0.94775271079938 125.55638044863  
! Gamma         0.7594653518262  1400.73840048087 0.75945146017595 1400.73811191629 
! Port Impedance         394.062471111946 0.227986561673039 394.073854704799 0.227996814760875 
113.6                          0.94767601162114 125.223969175278 0.00319016902217516 -166.775084813846 0.00319016902217514 -166.775084813845 0.948581570433495 125.181263032094 
! Gamma         0.758047075728316 1404.29519719776 0.758033153583527 1404.29490928928 
! Port Impedance         393.410596088093 0.226770938996683 393.421960542112 0.22678115044995 
113.7                          0.948660940428673 124.84579637704  0.00277446001446164 -162.466781047051 0.00277446001446164 -162.466781047051 0.949369801406498 124.800822688141 
! Gamma         0.756639557785964 1407.84612850778 0.75662560523229 1407.84584125088 
! Port Impedance         392.763651061122 0.225569545178922 392.774996522554 0.225579715470469 
113.8                          0.949588331588284 124.462298939502 0.0024051052675803 -158.640932157716 0.00240510526758031 -158.640932157716 0.950116904294894 124.415070252732 
! Gamma         0.755242675084514 1411.39123868083 0.755228692206931 1411.39095207104 
! Port Impedance         392.121578455081 0.224382156368482 392.132905068447 0.224392285963842 
113.9                          0.950456895634543 124.07345097602  0.00207888295027462 -155.173187017399 0.00207888295027462 -155.173187017398 0.950822187393531 124.024011447372 
! Gamma         0.753856306656327 1414.93057147094 0.753842293539143 1414.93028550383 
! Port Impedance         391.484321615202 0.223208553237428 391.495629523324 0.223218642594968 
114                            0.951265277197154 123.679230059512 0.00179140349239848 -151.941729728805 0.00179140349239849 -151.941729728806 0.95148474894927 123.627646715653 
! Gamma         0.7524803334413  1418.46417012447 0.752466290168165 1418.46388479569 
! Port Impedance         390.851824789141 0.222048520869822 390.86311413317  0.222058570440886 
114.1                          0.952012043277374 123.279617685187 0.00153812238775964 -148.823619582002 0.00153812238775966 -148.823619582002 0.952103454895151 123.225971169057 
! Gamma         0.751114638248394 1421.99207738824 0.751100564902305 1421.99179269345 
! Port Impedance         390.224033108681 0.220901848653597 390.235304028122 0.220911858882643 
114.2                          0.952695669825951 122.874599807957 0.00131484557301231 -145.687393992482 0.00131484557301233 -145.687393992482 0.952676911227093 122.818974677967 
! Gamma         0.74975910571809 1425.51433551737 0.749745002381404 1425.5140514523  
! Port Impedance         389.600892571888 0.219768330175555 389.612145204628 0.219778301500291 
114.3                          0.953314526378687 122.464167474034 0.00111795749764026 -142.381991328901 0.00111795749764027 -142.381991328901 0.95320343000165 122.406642159619 
! Gamma         0.748413622285776 1429.03098628305 0.748399489040218 1429.03070284348 
! Port Impedance         388.982350025705 0.218647763119379 388.993584508038 0.218657695970898 
114.4                          0.953866858463062 122.048317572063 0.000944517979806504 -138.720984298701 0.000944517979806512 -138.7209842987  0.953680987745335 121.988954136404 
! Gamma         0.747078076146021 1432.54207098016 0.747063913072688 1432.54178816189 
! Port Impedance         388.368353148964 0.217539949166566 388.379569615618 0.217549843969474 
114.5                          0.954350767439185 121.627053737022 0.000792318064800748 -134.4605561885  0.000792318064800762 -134.460556188501 0.954107174858051 121.565887668069 
! Gamma         0.745752357217704 1436.04763043465 0.74573816439708 1436.04734823356 
! Port Impedance         387.758850435818 0.216444693900175 387.770049019977 0.216454551072716 
114.6                          0.95476418738039 121.200387450453 0.000659954156764672 -129.270883624909 0.000659954156764678 -129.270883624909 0.95447913437831 121.137417803123 
! Gamma         0.744436357110004 1439.54770501088 0.744422134621962 1439.54742342289 
! Port Impedance         387.153791179574 0.21536180671131 387.164972012902 0.215371626665491 
114.7                          0.955104858533428 120.768339394549 0.000546959995274588 -122.708506614474 0.000546959995274611 -122.708506614475 0.954793488283406 120.70351975287  
! Gamma         0.743129969089183 1443.04233461876 0.743115717012997 1443.04205363981 
! Port Impedance         386.553125456904 0.214291100708237 386.564288669573 0.214300883849946 
114.8                          0.955370296827467 120.330941136369 0.000453993397004762 -114.22589858865 0.000453993397004787 -114.225898588649 0.955046249376854 120.26417207226  
! Gamma         0.741833088046185 1446.53155872071 0.741818806460535 1446.53127834681 
! Port Impedance         385.956804112451 0.213232392628055 385.967949833159 0.213242139357184 
114.9                          0.955557758829929 119.888237243899 0.000382917711623396 -103.32551130998 0.000382917711623404 -103.325511309983 0.955232716865911 119.819361243821 
! Gamma         0.740545610464986 1450.01541633861 0.740531299447967 1450.01513656579 
! Port Impedance         385.364778743787 0.212185502750847 385.375907099785 0.212195213461401 
115                            0.955664201486033 119.440287970478 0.000336228221199411 -90.0243674992154 0.000336228221199426 -90.0243674992162 0.955347354127377 119.36908821593  
! Gamma         0.739267434391709 1453.49394606046 0.739253094020838 1453.49366688481 
! Port Impedance         384.777001686742 0.211150254816212 384.788112803852 0.211159929896425 
115.1                          0.955686235947432 118.987172691919 0.000315076721990285 -75.4701860088023 0.000315076721990296 -75.4701860088036 0.955383648201404 118.913377659151 
! Gamma         0.737998459404461 1456.96718604701 0.737984089756686 1456.96690746465 
! Port Impedance         384.193426001067 0.210126475942117 384.204520003708 0.210136115774559 
115.2                          0.955620074830565 118.528994346901 0.000316779273796394 -61.7305444182103 0.00031677927379639 -61.7305444182133 0.955333952752239 118.452290992186 
! Gamma         0.736738586583879 1460.43517403824 0.736724187735582 1460.43489604536 
! Port Impedance         383.614005456446 0.209113996545995 383.625082467654 0.209123601507682 
115.3                          0.955461472413293 118.065885223455 0.000334936283214412 -50.4502236230122 0.000334936283214419 -50.450223623018 0.95518932044642 117.985944610234 
! Gamma         0.735487718484366 1463.89794735973 0.735473290511374 1463.89766995252 
! Port Impedance         383.038694518832 0.208112650268004 383.049754660279 0.2081222207305  
115.4                          0.955205657697516 117.598014563512 0.000362350135626268 -42.0728100457588 0.000362350135626281 -42.0728100457617 0.954939338319758 117.514535235863 
! Gamma         0.734245759105996 1467.35554292884 0.734231302083586 1467.35526610355 
! Port Impedance         382.467448337096 0.207122273896397 382.478491729114 0.207131810225919 
115.5                          0.954847261144955 117.12559863909  0.000393261414500381 -36.2622845358632 0.000393261414500384 -36.2622845358668 0.95457199295908 117.038374896617 
! Gamma         0.733012613867072 1470.80799726085 0.732998127869977 1470.80772101377 
! Port Impedance         381.900222730001 0.206142707294922 381.911249491601 0.206152209852436 
115.6                          0.954380237602653 116.64891420937  0.000423676801404597 -32.4970519370262 0.000423676801404589 -32.4970519370292 0.954073614621531 116.557938649404 
! Gamma         0.731788189577316 1474.25534647496 0.731773674679735 1474.25507080242 
! Port Impedance         381.336974173463 0.205173793332195 381.347984422353 0.205183262473519 
115.7                          0.95379779112618 116.168316627615 0.000450849423756744 -30.3391980665381 0.000450849423756755 -30.339198066537 0.953428985663443 116.073928628557 
! Gamma         0.730572394411679 1477.69762630015 0.730557850687278 1477.69735119851 
! Port Impedance         380.777659788116 0.204215377812984 380.788653640723 0.20422481388888 
115.8                          0.953092313233355 115.684264369307 0.000472719098330344 -29.4913826127507 0.000472719098330352 -29.491382612752 0.95262175517264 115.587357844865 
! Gamma         0.729365137884747 1481.13487208096 0.729350565406672 1481.13459754662 
! Port Impedance         380.222237327156 0.203267309411343 380.233214898645 0.203276712767612 
115.9                          0.952255356612682 115.197352443965 0.000487510814170666 -29.7877085684614 0.000487510814170662 -29.7877085684634 0.95163538474733 115.09965547623  
! Gamma         0.728166330825733 1484.56711878313 0.728151729666608 1484.56684481254 
! Port Impedance         379.67066516447  0.202329439605543 379.68162656876  0.202338810583114 
116                            0.951277685052899 114.708358073551 0.000493470694417531 -31.1821193579796 0.000493470694417509 -31.1821193579826 0.95045496107539 114.612790415665 
! Gamma         0.726975885354035 1487.9944009992  0.726961255585976 1487.99412758883 
! Port Impedance         379.122902283028 0.201401622614733 379.133847632813 0.201410961549754 
116.1                          0.95014947363265 114.218303168308 0.000488700670534014 -33.7583930483631 0.00048870067053402 -33.7583930483627 0.949070332535964 114.129398649108 
! Gamma         0.725793714855353 1491.4167529539  0.725779056549968 1491.41648010027 
! Port Impedance         378.578908263545 0.200483715337294 378.589837670311 0.20049302256122 
116.2                          0.948860791853606 113.728539359328 0.000471101338945184 -37.7837783269367 0.000471101338945188 -37.7837783269384 0.947481098133103 113.652878560967 
! Gamma         0.724619733958335 1494.83420850955 0.724605047186732 1494.8339362092  
! Port Impedance         378.038643273394 0.199575577290823 378.049556847439 0.199584853130499 
116.3                          0.947402604561302 113.240862109427 0.000438559474830964 -43.859212988734 0.000438559474830957 -43.8592129887358 0.945703848531052 113.187382971359 
! Gamma         0.723453858511754 1498.24680117129 0.723439143344546 1498.2465294208  
! Port Impedance         377.502068055775 0.198677070553701 377.512965906222 0.198686315331449 
116.4                          0.945768699620815 112.75765916984  0.000389938834302292 -53.3211751831659 0.000389938834302287 -53.3211751831659 0.943781452860257 112.737590272678 
! Gamma         0.722296005562191 1501.6545640922  0.722281262069505 1501.6542928882  
! Port Impedance         376.969143919119 0.197788059708197 376.980026153936 0.197797273741893 
116.5                          0.943959235688268 112.282091480517 0.000329138294635019 -69.3134825294304 0.000329138294635021 -69.3134825294326 0.941792739002819 112.308100714857 
! Gamma         0.721146093332222 1505.05753007843 0.721131321583697 1505.05725941757 
! Port Impedance         376.439832726735 0.196908411785055 376.450699452752 0.196917595388214 
116.6                          0.941987028475157 111.818282518963 0.000280749802476385 -98.3437201190641 0.000280749802476382 -98.3437201190663 0.939858498752839 111.902333263847 
! Gamma         0.720004041199075 1508.45573159411 0.719989241263874 1508.45546147307 
! Port Impedance         375.914096886683 0.196037996209542 375.924948209607 0.19604714969139 
116.7                          0.939888205376851 111.371436215553 0.000318594501640479 -140.244179517018 0.000318594501640482 -140.244179517022 0.938137221389864 111.520978936188 
! Gamma         0.718869769673772 1511.84920076623 0.718854941620583 1511.84893118173 
! Port Impedance         375.391899341876 0.195176684748872 375.402735366307 0.195185808414429 
116.8                          0.937739075992692 110.947680406744 0.000503224823115222 -173.531725018936 0.000503224823115255 -173.531725018936 0.93680395361615 111.160438888355 
! Gamma         0.717743200380722 1515.23796938947 0.717728344277766 1515.23770033826 
! Port Impedance         374.873203560394 0.194324351461014 374.884024389844 0.194333445611163 
116.9                          0.935679691927558 110.553204224061 0.000826100733310853 165.45554089849  0.000826100733310878 165.45554089849  0.936011687353643 110.812078079638 
! Gamma         0.716624256037765 1518.62206893083 0.716609371952798 1518.6218004097  
! Port Impedance         374.357973526018 0.193480872644802 374.368779262921 0.193489937576366 
117                            0.933938446230927 110.191958209738 0.00128818413470803 149.709348320094 0.00128818413470805 149.709348320093 0.935846620678258 110.463127704272 
! Gamma         0.715512860436646 1522.00153053433 0.715497948436968 1522.00126254009 
! Port Impedance         373.846173728965 0.192646126791334 373.856964474698 0.192655162797144 
117.1                          0.932836546937212 109.861173358258 0.0019046245261947 135.381024070583 0.00190462452619472 135.381024070583 0.936298329251908 110.099324126366 
! Gamma         0.71440893842392 1525.37638502545 0.714393998576376 1525.37611755496 
! Port Impedance         373.337769156831 0.191819994536605 373.348545011725 0.191829001905574 
117.2                          0.932728501030213 109.54527883373  0.00267805275256386 120.746441303261 0.00267805275256389 120.746441303262 0.93726180285281 109.70824063237  
! Gamma         0.713312415882264 1528.74666291568 0.713297448253253 1528.74639596581 
! Port Impedance         372.832725285721 0.191002358615354 372.843486349077 0.191011337632541 
117.3                          0.933837376262894 109.212545737602 0.00356714968014178 105.185435912308 0.00356714968014179 105.185435912307 0.938570092741015 109.281755400947 
! Gamma         0.712223219712197 1532.11239440682 0.712208224367676 1532.11212797447 
! Port Impedance         372.331008071587 0.190193103816074 372.341754441691 0.190202054762756 
117.4                          0.93603577884576 108.822169028064 0.00447006175064165 88.9365280975789 0.00447006175064165 88.9365280975784 0.940039175188464 108.816730622557 
! Gamma         0.711141277814192 1535.47360939529 0.711126254819681 1535.47334347741 
! Port Impedance         371.832583941733 0.189392116937165 371.843315715869 0.189401040090897 
117.5                          0.938772773329586 108.343377520024 0.00526322433084618 72.868804276456  0.00526322433084618 72.868804276456  0.941504530616629 108.31411330578  
! Gamma         0.710066519071165 1538.83033747639 0.710051468491753 1538.83007206994 
! Port Impedance         371.337419786519 0.188599286744181 371.348137060985 0.188608182378865 
117.6                          0.941300090829862 107.772385271555 0.00587935720634282 57.9369354493086 0.00587935720634284 57.9369354493085 0.942839587058948 107.777330658717 
! Gamma         0.708998873331345 1542.18260794839 0.708983795231697 1542.18234305037 
! Port Impedance         370.845482951234 0.18781450392816 370.856185821354 0.187823372314104 
117.7                          0.943029448778783 107.130985354797 0.00633564577252179 44.6697524042652 0.0063356457725218 44.6697524042654 0.943957726546545 107.210779086738 
! Gamma         0.707938271391502 1545.53044981664 0.707923165835865 1545.53018542408 
! Port Impedance         370.356741228144 0.187037661064981 370.36742978828  0.187046502468964 
117.8                          0.943712602097132 106.450758912078 0.00669352508898461 33.09520153652   0.00669352508898464 33.0952015365202 0.9448047352015  106.618787256766 
! Gamma         0.706884644980533 1548.87389179757 0.706869512032739 1548.87362790752 
! Port Impedance         369.871162848708 0.186268652575743 369.881837192276 0.186277467261073 
117.9                          0.943382489760756 105.758959917279 0.00701450960281707 22.9556832032839 0.00701450960281704 22.955683203284  0.945348053271463 106.005079973002 
! Gamma         0.705837926743392 1552.2129623226  0.705822766466867 1552.21269893215 
! Port Impedance         369.388716475958 0.185507374688121 369.399376695442 0.185516162914692 
118                            0.942207859870467 105.073462002922 0.00734408245878946 13.9143601532416 0.00734408245878944 13.914360153242  0.945566525259994 105.37261225088  