! Touchstone file exported from HFSS 2020.2.4
!        File:           D:/Project/Deacon_v3/240214_MPW12_Gap_WG_Tester_D2A/Gap_WG_Tester_D2.aedt
!        Generated:      11:43:58 AM  Mar 20, 2025
!        Design:         Line
!        Project:        Gap_WG_Tester_D2
!        Setup:          Setup1
!        Solution:       Sweep
!
! Variables:
!        C_G = 12um
!        C_H = 0.5mm
!        Deembedding = 25.4mm
!        E_P = 133um
!        S_H1 = 260um
!        S_H2 = 0.013mm
!        S_H3 = 8um
!        S_X = 30mm
!        S_X0 = 15mm
!        S_Y = 15mm
!        S_Y0 = 7.5mm
!        TL_G = 40um
!        TL_L = 12.1467848662796mm
!        TL_W = 0.24mm
!        TR_L = 706.43026744077um
!        TR_L2 = 226.8691264263um
!        TR_L3 = 373.29154801399um
!        TR_P = 109.62537243288um
!        TR_W = 1597.2041747747um
!        TR_W2 = 282.226541747um
!        V_PBO = 20um
!        V_Pad = 40um
!        V_R = 20um
!        WG_L = 0.8255mm
!        WG_W = 1.651mm
!        th = 5um
!
!Data is not renormalized
# GHZ S MA
! Terminal data exported
! Port[1] = 1
! Port[2] = 2
110                            0.893702099909203 -40.6048022138388 0.000515424639477333 -19.1789987436891 0.000515424639477333 -19.1789987436891 0.894552529777763 -40.6511326608369 
! Gamma         0.817040069526961 1272.16880876225 0.817066881422298 1272.16941053394 
! Port Impedance         420.52670817557  0.28165459450627 420.512836824092 0.281648234170549 
110.1                          0.893891889574908 -52.1554875602137 0.000505378618098613 -29.2264765788981 0.000505378618098613 -29.2264765788981 0.89466000728394 -52.1963480579051 
! Gamma         0.815149174634221 1275.96351360374 0.815176051511849 1275.96411375429 
! Port Impedance         419.65710510641  0.279754124109343 419.64326188629  0.27974781791312 
110.2                          0.894074746445007 -63.6854959733626 0.000495450543728127 -39.2026175929949 0.000495450543728128 -39.2026175929948 0.894764796636094 -63.7209685425127 
! Gamma         0.813274965386726 1279.7503993212  0.813301907031973 1279.75099786394 
! Port Impedance         418.795217784442 0.277879753876795 418.781402446482 0.277873500975848 
110.3                          0.894250573729301 -75.1950278062671 0.000485655314202964 -49.1051182937984 0.000485655314202965 -49.1051182937984 0.894866803884597 -75.2251958836416 
! Gamma         0.811417215516206 1283.52953512174 0.811444221717247 1283.53013206981 
! Port Impedance         417.940939628189 0.276030995236023 417.927151926973 0.276024794811437 
110.4                          0.894419273919154 -86.6842804950069 0.000476008972782116 -58.931621583351 0.000476008972782114 -58.9316215833511 0.894965932115844 -86.7092289108047 
! Gamma         0.809575703011233 1287.30098925899 0.809602773559005 1287.30158462535 
! Port Impedance         417.094166077381 0.274207371343096 417.080405771163 0.274201222599608 
110.5                          0.89458074880383 -98.1534486135453 0.000466528764079829 -68.6797389174204 0.000466528764079829 -68.6797389174204 0.89506208140522 -98.173263566773 
! Gamma         0.807750210014858 1291.06482905111 0.80777734470298 1291.06542284856 
! Port Impedance         416.25479454416  0.272408416740022 416.241061394763 0.27240231890451 
110.6                          0.894734899485974 -109.602723927441 0.000457233183289275 -78.3470786800079 0.000457233183289275 -78.3470786800079 0.895155148768878 -109.617492959212 
! Gamma         0.805940522725238 1294.82112089842 0.80596772134993 1294.82171313957 
! Port Impedance         415.422724365716 0.270633677023798 415.409018138432 0.270627629343914 
110.7                          0.894881626396645 -121.032295446629 0.000448142015491809 -87.9312817350692 0.000448142015491809 -87.9312817350692 0.895245028115042 -121.042107411287 
! Gamma         0.804146431299151 1298.56993030057 0.804173693659159 1298.57052099788 
! Port Impedance         414.597856758299 0.268882708526784 414.584177221796 0.268876710269701 
110.8                          0.895020829309151 -132.442349477236 0.000439276361155813 -97.4300651153521 0.000439276361155813 -97.4300651153521 0.895331610194453 -132.447294511241 
! Gamma         0.802367729758301 1302.31132187329 0.802395055654824 1302.31191103903 
! Port Impedance         413.780094772569 0.267155078007947 413.766441698802 0.267149128459226 
110.9                          0.895152407353001 -143.833069672528 0.000430658643188116 -106.841274738559 0.000430658643188116 -106.841274738559 0.895414782549831 -143.83323916104 
! Gamma         0.800604215898319 1306.04535936478 0.80063160513494 1306.04594701109 
! Port Impedance         412.969343250226 0.265450362354561 412.955716414353 0.265444460817111 
111                            0.895276259025947 -155.204637083015 0.000422312590143097 -116.162947876573 0.000422312590143096 -116.162947876572 0.895494429464746 -155.200123624086 
! Gamma         0.798855691200371 1309.77210567169 0.798883143582988 1309.77269181053 
! Port Impedance         412.165508781893 0.263768148293946 412.151907962196 0.263762294087079 
111.1                          0.895392282205808 -166.557230205733 0.000414263189478313 -125.393385813999 0.000414263189478313 -125.393385814   0.895570431911323 -166.548127572052 
! Gamma         0.797121960745278 1313.49162285474 0.797149476082038 1313.49220749792 
! Port Impedance         411.368499666192 0.262108032114864 411.354924644003 0.262102224573433 
111.2                          0.895500374160928 -177.891025032797 0.000406536604147765 -134.531236685926 0.000406536604147764 -134.531236685925 0.89564266749764 -177.8774281309  
! Gamma         0.795402833130072 1317.20397215395 0.795430411231308 1317.20455531313 
! Port Impedance         410.578225869992 0.260469619398196 410.564676429615 0.26046385787181 
111.3                          0.895600431559604 170.793804900782 0.000399160045453633 -143.575587853092 0.000399160045453633 -143.575587853092 0.895711010413361 170.811800073924 
! Gamma         0.7936981203869  1320.90921400354 0.793725761065071 1320.90979569023 
! Port Impedance         409.794598989768 0.258852524756556 409.781074918417 0.258846808608859 
111.4                          0.895692350478378 159.497088469956 0.00039216159506879 -152.526066337552 0.00039216159506879 -152.526066337552 0.895775331375502 159.519384873014 
! Gamma         0.792007637904205 1324.60740804649 0.792035340973838 1324.60798827204 
! Port Impedance         409.017532214055 0.257256371582478 409.004033301782 0.25725070019049 
111.5                          0.895776026408398 148.218656913124 0.000385569969649013 -161.382944804094 0.000385569969649013 -161.382944804094 0.8958354975726  148.245156509283 
! Gamma         0.790331204350105 1328.29861314872 0.790358969627738 1328.29919192435 
! Port Impedance         408.246940286951 0.255680791804881 408.233466326586 0.2556751645584  
111.6                          0.895851354261685 136.95834378623  0.000379414222643285 -170.147249364116 0.000379414222643285 -170.147249364116 0.895891372607927 136.988947594872 
! Gamma         0.788668641597899 1331.98288741303 0.788696468902024 1331.98346474981 
! Port Impedance         407.482739472629 0.254125425653474 407.469290259719 0.254119841954522 
111.7                          0.895918228374135 125.715984917385 0.000373723379928201 -178.820864172786 0.000373723379928201 -178.820864172786 0.895942816442379 125.750593068738 
! Gamma         0.787019774653624 1335.66028819262 0.787047663804641 1335.66086410148 
! Port Impedance         406.724847520837 0.25258992143082 406.711422853589 0.252584380693135 
111.8                          0.895976542508103 114.491418362058 0.000368526008844978 172.593373488025 0.00036852600884498 172.593373488026 0.895989685335483 114.52993015483  
! Gamma         0.785384431585613 1339.33087210438 0.785412382405774 1339.33144659613 
! Port Impedance         405.973183633348 0.251073935291765 405.959783312572 0.251068436940339 
111.9                          0.896026189852993 103.284484358683 0.000363849724114693 164.091595021513 0.000363849724114694 164.091595021513 0.896031831786178 103.326798320813 
! Gamma         0.783762443455968 1342.99469504189 0.78379045576933 1342.99526812718 
! Port Impedance         405.227668431328 0.249577131029956 405.214292260385 0.249571674500607 
112                            0.896067063023217 92.0950252847642 0.000359720638829692 155.668847249725 0.000359720638829692 155.668847249725 0.896069104472091 92.1410392373283 
! Gamma         0.782153644253908 1346.65181218802 0.78218171788629 1346.65238387738 
! Port Impedance         404.488223923593 0.248099179871202 404.474871708342 0.248093764610177 
112.1                          0.896099054055282 80.9228856133414 0.000356162773977008 147.319072078747 0.000356162773977008 147.319072078747 0.896101348187732 80.9724967377531 
! Gamma         0.780557870830915 1350.30227802738 0.780586005609846 1350.30284833121 
! Port Impedance         403.754773475732 0.246639760273403 403.741445024483 0.246634385737015 
112.2                          0.896122054401441 69.7679118698275 0.000353197445263165 139.035126209906 0.000353197445263166 139.035126209906 0.896128403781859 69.8210167783801 
! Gamma         0.778974962837623 1353.94614635845 0.779003158592305 1353.94671528701 
! Port Impedance         403.027241780056 0.245198557732824 403.013936903521 0.245193223387115 
112.3                          0.896135954922096 58.6299525891883 0.000350842650742081 130.808846110302 0.00035084265074208 130.808846110302 0.896150108093577 58.6864473990356 
! Gamma         0.777404762662411 1357.58347030535 0.777433019223674 1357.5840378688  
! Port Impedance         402.305554826363 0.243775264596477 402.29227333761  0.243769969916907 
112.4                          0.896140645874928 47.5088582733737 0.000349112486161069 122.63116055924  0.000349112486161068 122.63116055924  0.896166293886839 47.5686386840644 
! Gamma         0.775847115371622 1361.21430232954 0.775875432571885 1361.2148685379  
! Port Impedance         401.589639873481 0.242369579880389 401.57638158789  0.242364324351542 
112.5                          0.896136016901889 36.4044813490242 0.000348016616325565 114.49224939042  0.000348016616325564 114.49224939042  0.896176789784291 36.4674427236438 
! Gamma         0.774301868651377 1364.83869424107 0.774330246324611 1364.83925910423 
! Port Impedance         400.879425421568 0.240981209093548 400.866190156789 0.240975992208866 
112.6                          0.896121957013092 25.3166761253641 0.000347559829596982 106.381742939371 0.000347559829596981 106.381742939371 0.896181420199622 25.3827135754039 
! Gamma         0.772768872750925 1368.4566972097  0.772797310732611 1368.45726073745 
! Port Impedance         400.174841185146 0.239609864067314 400.161628761057 0.239604685328842 
112.7                          0.896098354567779 14.2452987522668 0.000347741698658207 98.2889527181869 0.000347741698658205 98.2889527181867 0.896180005268145 14.3143072263083 
! Gamma         0.771247980427478 1372.06836177575 0.771276478554579 1372.06892397776 
! Port Impedance         399.475818066847 0.238255262790112 399.462628305514 0.238250121708264 
112.8                          0.896065097252241 3.19020717844351 0.000348556364099376 90.2031205705519 0.000348556364099376 90.2031205705518 0.896172360776767 3.2620815547553  
! Gamma         0.769739046892496 1375.67373786073 0.769767605003415 1375.67429874653 
! Port Impedance         398.78228813185  0.236917129247212 398.769120857488 0.236912025340548 
112.9                          0.896022072054221 -7.84873889027979 0.000349992448821127 82.1136715403007 0.000349992448821128 82.1136715403012 0.896158298091707 -7.77410370714504 
! Gamma         0.768241929759369 1379.27287477768 0.768270547693919 1379.27343435673 
! Port Impedance         398.094184582981 0.235595193265414 398.081039621915 0.235590126060432 
113                            0.895969165233979 -18.8716780326587 0.000352033101706316 74.0104552607745 0.000352033101706316 74.0104552607745 0.896137624085145 -18.79438701115  
! Gamma         0.766756488992451 1382.8658212414  0.766785166591825 1382.86637952301 
! Port Impedance         397.411441736459 0.23428919036247 397.398318917091 0.234284159393412 
113.1                          0.895906262291331 -29.8787471537021 0.000354656159632858 65.8839619135885 0.000354656159632857 65.8839619135888 0.896110141060361 -29.7989050303655 
! Gamma         0.765282586857416 1386.45262537835 0.765311323964156 1386.45318237173 
! Port Impedance         396.733994998279 0.232998861601077 396.72089415105  0.232993866409742 
113.2                          0.895833247928915 -40.8700815264264 0.000357834408812689 57.72550149816   0.000357834408812689 57.72550149816   0.896075646674693 -40.7877926966614 
! Gamma         0.763820087872887 1390.0333347364  0.76384888433085 1390.03389045066 
! Port Impedance         396.061780841196 0.23172395344728 396.04870179855  0.231718993582849 
113.3                          0.895750006011131 -51.8458148336624 0.000361535920517213 49.5273388460247 0.000361535920517215 49.527338846025  0.89603393386142 -51.7611832380961 
! Gamma         0.762368858763295 1393.60799629436 0.762397714417632 1393.60855073851 
! Port Impedance         395.394736782294 0.230464217633132 395.381679378648 0.230459292651999 
113.4                          0.89565641951899 -62.8060792100376 0.000365724432971078 41.282780926688  0.000365724432971078 41.282780926688  0.89598479074916 -62.7192082163412 
! Gamma         0.760928768412952 1397.17665647134 0.760957683110074 1397.17720965428 
! Port Impedance         394.732801361142 0.229219411023459 394.719765432851 0.229214520489075 
113.5                          0.89555237049968 -73.7510052841112 0.000370359750612738 32.9862169441194 0.000370359750612738 32.9862169441194 0.895928000579973 -73.6619975642181 
! Gamma         0.759499687821267 1400.73936113587 0.759528661408823 1400.73991306638 
! Port Impedance         394.075914118489 0.227989295486601 394.062899503815 0.227984438969322 
113.6                          0.895437740011705 -84.680722220795 0.000375398133696334 24.6331150442696 0.000375398133696334 24.6331150442696 0.89586334162521 -84.5896796233384 
! Gamma         0.758081490059111 1404.29615561482 0.758110522385964 1404.2967063016  
! Port Impedance         393.424015575511 0.226773637768981 393.41102211459  0.226768814845921 
113.7                          0.895312408064737 -95.5953577640005 0.000380792654746087 16.2199818504533 0.000380792654746087 16.2199818504534 0.895790587099023 -95.5023811819351 
! Gamma         0.756674050226266 1407.84708470222 0.756703141142463 1407.84763415387 
! Port Impedance         392.777047213568 0.22557220937338 392.764074748384 0.225567419628274 
113.8                          0.895176253553857 -106.495038279708 0.000386493502959084 7.74429241426716 0.000386493502959084 7.7442924142673  0.8957095050702  -106.400227512912 
! Gamma         0.755277245409939 1411.3921926678  0.755306394766694 1411.39274089281 
! Port Impedance         392.13495145448  0.224384786440781 392.121999828832 0.224380029463849 
113.9                          0.895029154188111 -117.379888799382 0.000392448222590904 -0.795601420196571 0.000392448222590903 -0.795601420196494 0.895619858371336 -117.2833424122  
! Gamma         0.753890954644309 1414.93152326542 0.753920162293976 1414.93207027219 
! Port Impedance         391.497671641285 0.22321114963568 391.484740700758 0.223206425023498 
114                            0.8948709864131  -128.250033063893 0.000398601876078612 -9.4005766151512 0.000398601876078612 -9.40057661515111 0.895521404505912 -128.151848237428 
! Gamma         0.752515058871073 1418.46511974127 0.752544324667129 1418.46566553811 
! Port Impedance         390.865152019484 0.222051084034723 390.852241611422 0.222046391390101 
114.1                          0.894701625326798 -139.105593567955 0.000404897126752057 -18.0708518055438 0.000404897126752057 -18.070851805544 0.895413895552602 -139.005865947038 
! Gamma         0.751149440900971 1421.99302484201 0.751178764697993 1421.99356943713 
! Port Impedance         390.237337718737 0.220904379018583 390.224447692217 0.220899717950441 
114.2                          0.894520944589361 -149.94669160517 0.000411274239230929 -26.8061019891059 0.000411274239230933 -26.8061019891058 0.895297078067127 -149.845515139826 
! Gamma         0.749793985376246 1425.51528082259 0.74982336702989 1425.51582422412 
! Port Impedance         389.614174735026 0.219770828166951 389.601304940827 0.219766198290206 
114.3                          0.89432881632485 -160.773447313753 0.000417670997926299 -35.605570972624 0.0004176709979263 -35.6055709726241 0.895170692981321 -160.670914095068 
! Gamma         0.748448578734029 1429.03192945405 0.748478018101015 1429.03247167001 
! Port Impedance         388.99560991324  0.218650229156543 388.982760203821 0.218645630091994 
114.4                          0.894125111016643 -171.58597972302 0.000424022545504828 -44.4681788621939 0.000424022545504828 -44.4681788621939 0.895034475499358 -171.482179813228 
! Gamma         0.747113109170609 1432.5430120311  0.747142606108698 1432.54355306944 
! Port Impedance         388.381590930193 0.217542383662027 388.368761159664 0.217537815036244 
114.5                          0.893909697394098 177.615593199297 0.000430261143843074 -53.3926231276326 0.000430261143843074 -53.3926231276324 0.894888154990944 177.720571942617 
! Gamma         0.745787466606574 1436.04856937954 0.745817020974553 1436.04910924812 
! Port Impedance         387.772066278054 0.216447097259772 387.759256302152 0.216442558704989 
114.6                          0.89368244231126 166.831154498783 0.000436315860052715 -62.3774728593736 0.000436315860052718 -62.3774728593735 0.894731454881542 166.937226604589 
! Gamma         0.744471542652782 1439.54864186359 0.74450115431045 1439.54918057017 
! Port Impedance         387.166985248173 0.215364179334318 387.154194924237 0.215359670488333 
114.7                          0.893443210617267 156.060588185052 0.000442112179754022 -71.4212567690367 0.000442112179754022 -71.4212567690367 0.894564092538755 156.167670756933 
! Gamma         0.743165230577166 1443.04326939298 0.743194899385312 1443.04380694526 
! Port Impedance         386.5662979153   0.214293442987499 386.553527102249 0.214288963493566 
114.8                          0.893191865016832 145.303779181307 0.00044757154907224 -80.522546292255 0.00044757154907224 -80.5225462922548 0.89438577915623 145.411792091988 
! Gamma         0.741868425272311 1446.53249143002 0.741898151092705 1446.53302783559 
! Port Impedance         385.969955122187 0.213234704950108 385.957203680493 0.213230254456841 
114.9                          0.89292826592198 134.560613272639 0.000452610845973086 -89.6800358872674 0.000452610845973086 -89.6800358872674 0.894196219633085 134.669479365052 
! Gamma         0.740581023223824 1450.01634699642 0.740610805919196 1450.0168822628  
! Port Impedance         385.377908464543 0.212187785496041 385.365176256209 0.212183363657317 
115                            0.892652271292899 123.830977052965 0.000457141780674264 -98.8926233577787 0.00045714178067426 -98.8926233577786 0.893995112450018 123.940622348094 
! Gamma         0.739302922479434 1453.49487468002 0.739332761913466 1453.49540881466 
! Port Impedance         384.790110276365 0.211152508358828 384.777397164903 0.211148114833692 
115.1                          0.892363736468647 113.114757870384 0.00046107022410651 -108.159493857449 0.000461070224106511 -108.159493857449 0.893782149541457 113.225111782073 
! Gamma         0.738034022618837 1456.96811264147 0.738063918656146 1456.96864565171 
! Port Impedance         384.2065136156   0.210128700650487 384.193819466008 0.210124335103056 
115.2                          0.89206251398634 102.411843770915 0.000464295462903109 -117.48021227777 0.000464295462903109 -117.48021227777 0.893557016163362 102.522839327859 
! Gamma         0.736774224724238 1460.43609862059 0.736804177230365 1460.43663051372 
! Port Impedance         383.627072250158 0.20911619278261 383.614396928897 0.209111854881988 
115.3                          0.891748453388382 91.7221234403297 0.000466709379375689 -126.854830148503 0.000466709379375689 -126.854830148503 0.893319390757461 91.8336975154939 
! Gamma         0.735523431351588 1463.89886994281 0.735553440192988 1463.89940072604 
! Port Impedance         383.051740644241 0.208114818389629 383.039084019216 0.208110507809813 
115.4                          0.891421401017467 81.0454861439786 0.00046819555567815 -136.284015229797 0.000468195555678153 -136.284015229797 0.89306894480996 81.1575796916627 
! Gamma         0.734281546502494 1467.35646352537 0.734311611546518 1467.35699320582 
! Port Impedance         382.480473945001 0.207124414254178 382.467835885539 0.207120130673972 
115.5                          0.891081199798027 70.3818216643529 0.000468628303330739 -145.769215011285 0.000468628303330739 -145.769215011285 0.892805342706574 70.4943799652036 
! Gamma         0.733048475596766 1470.80891588341 0.733078596711659 1470.80944446814 
! Port Impedance         381.913227969507 0.20614482023449 381.900608346335 0.20614056333742 
115.6                          0.890727689003702 59.7310202361637 0.000467871623213231 -155.312869926678 0.000467871623213231 -155.312869926678 0.892528241582111 59.8439931503937 
! Gamma         0.731824125445615 1474.25626313601 0.731854302500503 1474.25679063199 
! Port Impedance         381.349959192007 0.205175879193772 381.337357877232 0.205171648668001 
115.7                          0.890360704010086 49.0929724787096 0.000465778108280908 -164.918699170929 0.000465778108280908 -164.918699170929 0.892237291165332 49.2063147078593 
! Gamma         0.730608404225462 1477.698541012   0.730638637090343 1477.69906742615 
! Port Impedance         380.79062473149  0.204217436931484 380.778041598581 0.204213232469732 
115.8                          0.889980076031562 38.4675693251717 0.000462187813720623 -174.59209312412 0.000462187813720624 -174.592093124119 0.891932133618219 38.5812406827577 
! Gamma         0.72940122145234 1481.13578485581 0.729431509998076 1481.13631019495 
! Port Impedance         380.235182339537 0.203269342116474 380.222617263302 0.203265163415932 
115.9                          0.889585631841508 27.8547019486115 0.000456927140740153 175.659335786512 0.000456927140740152 175.659335786512 0.891612403370152 27.9686676400238 
! Gamma         0.728202487956886 1484.56802963305 0.728232832055199 1484.56855390395 
! Port Impedance         379.683590388439 0.202331446221898 379.671043245011 0.202327292984154 
116                            0.88917719347432 17.2542616842092 0.00044980781729509 165.824962686179 0.000449807817295091 165.824962686178 0.891277726945737 17.3684925962951 
! Gamma         0.727012115859903 1487.99530993613 0.727042515383368 1487.99583314549 
! Port Impedance         379.135807859599 0.201403603461892 379.12327852641  0.20139947539285 
116.1                          0.888754577908975 6.66613994740497 0.000440626124061936 155.889989869105 0.000440626124061937 155.889989869105 0.890927722787302 6.78061294817512 
! Gamma         0.725830018548467 1491.41765998966 0.725860473370512 1491.4181821441  
! Port Impedance         378.591794332185 0.200485670729915 378.579282687955 0.200481567539721 
116.2                          0.888317596731536 -3.90977185257197 0.000429162630330311 145.833700276452 0.000429162630330311 145.833700276452 0.890562001070495 -3.79507360355729 
! Gamma         0.724656110652581 1494.83511365585 0.72468662064748 1494.83563476193 
! Port Impedance         378.051509972049 0.199577507538735 378.039015896763 0.199573428941698 
116.3                          0.887866055776349 -14.4735824042763 0.000415182918968641 135.626754740484 0.000415182918968644 135.626754740483 0.890180163513739 -14.3586691343329 
! Gamma         0.72349030802234 1498.2477044397  0.723520873065223 1498.2482245039  
! Port Impedance         377.514915520891 0.198678975961992 377.50243889578  0.198674921676515 
116.4                          0.887399754743199 -25.0254005913383 0.000398440189581174 125.226875905315 0.000398440189581177 125.226875905315 0.889781803180464 -24.9102755811917 
! Gamma         0.722332527705623 1501.65546549419 0.722363147672473 1501.65598452295 
! Port Impedance         376.981972285663 0.197789940577303 376.969512993192 0.197785910325807 
116.5                          0.886918486789396 -35.5653355961839 0.000378681447679212 114.571704054267 0.000378681447679211 114.571704054267 0.889366504274116 -35.4499948339256 
! Gamma         0.721182687926261 1505.05842962536 0.721213362693929 1505.05894762503 
! Port Impedance         376.45264212822  0.196910268410848 376.440200052066 0.196906261919704 
116.6                          0.886422038094138 -46.0934970109188 0.000355660709458483 103.566476111656 0.000355660709458482 103.566476111655 0.888933841925577 -45.9779288325639 
! Gamma         0.720040708062702 1508.4566292972  0.720071437508921 1508.45714627409 
! Port Impedance         375.926887455188 0.196039828883413 375.914462480224 0.196035845882869 
116.7                          0.885910187392622 -56.6099949563152 0.000329166497549902 92.0617597339768 0.000329166497549904 92.061759733977  0.888483381972119 -56.4941796720277 
! Gamma         0.718906508627138 1511.85009663662 0.718937292630548 1511.85061259695 
! Port Impedance         375.404671208066 0.195178493757815 375.392263220345 0.195174533981933 
116.8                          0.885382705477387 -67.114940209934 0.000299080105651342 79.8110666623478 0.000299080105651345 79.8110666623482 0.888014680727966 -66.9988497148725 
! Gamma         0.71778001124509 1515.23886343816 0.717810849685269 1515.23937838811 
! Port Impedance         374.885956853542 0.194326137087708 374.87356574028  0.194322200274289 
116.9                          0.884839354663344 -77.6084443445628 0.000265504861646603 66.3856990143293 0.000265504861646603 66.3856990143289 0.887527284744702 -77.4920417131559 
! Gamma         0.716661138635433 1518.62296116873 0.716692031392952 1518.62347511441 
! Port Impedance         374.370708374025 0.193482635167689 374.358334023586 0.193478721058216 
117                            0.88427988821232 -88.0906198783909 0.000229072583081693 50.9964028400991 0.000229072583081697 50.9964028400992 0.887020730562219 -87.9738589406338 
! Gamma         0.715549814590854 1522.00242097223 0.715580761547347 1522.00293391969 
! Port Impedance         373.85889025838  0.192647866484699 373.846532560259 0.192643974824265 
117.1                          0.88370404971305 -98.5615804385171 0.000191722814919407 32.129855797579  0.00019172281491941 32.1298557975792 0.886494544447734 -98.4444053367319 
! Gamma         0.714445963958722 1525.37727367406 0.714476964996991 1525.37778562928 
! Port Impedance         373.350467492868 0.191821711670653 373.338126337676 0.191817842207901 
117.2                          0.88311157241055 -109.021440939677 0.000158700342765863 7.06519761686116 0.000158700342765863 7.06519761686116 0.885948242122193 -108.903785663881 
! Gamma         0.713349512622357 1528.74754978558 0.71338056762652 1528.74806075449 
! Port Impedance         372.845405552283 0.191004053456283 372.833080831731 0.191000205943345 
117.3                          0.882502178478599 -119.470317780423 0.000142169831476854 -26.751747124561 0.000142169831476854 -26.751747124561 0.885381328472954 -119.352105680181 
! Gamma         0.712260387482683 1532.11327950848 0.712291496338391 1532.11378949696 
! Port Impedance         372.343670391281 0.190194776626151 372.331361998165 0.190190950818585 
117.4                          0.881875578226647 -129.908329059317 0.000158322356901658 -64.1110397807683 0.00015832235690166 -64.1110397807662 0.884793297249427 -129.78947232961 
! Gamma         0.711178516440247 1535.4744927391  0.711209679034992 1535.47500175297 
! Port Impedance         371.845228435889 0.189393767974797 371.832936264077 0.189389963631527 
117.5                          0.88123146923261 -140.33559481423 0.000209652900257164 -94.4735871556672 0.000209652900257163 -94.4735871556672 0.884183630740481 -140.215993952432 
! Gamma         0.710103828377574 1538.83121907263 0.710135044601132 1538.83172711764 
! Port Impedance         371.350046575211 0.188600916263987 371.337770519626 0.188597133147247 
117.6                          0.880569535387686 -150.752237288347 0.000286898607428661 -116.598234295425 0.000286898607428662 -116.598234295424 0.883551799428971 -150.631780518925 
! Gamma         0.709036253141856 1542.18348780724 0.709067522886914 1542.1839948891  
! Port Impedance         370.858092153294 0.187816112181038 370.845832109901 0.187812350056312 
117.7                          0.879889445840286 -161.158381227194 0.000383525910060372 -133.619858711797 0.000383525910060375 -133.619858711797 0.882897261619986 -161.036943890154 
! Gamma         0.707975721527974 1545.53132794819 0.708007044690958 1545.53183407255 
! Port Impedance         370.369332961181 0.187039248298179 370.357088826972 0.187035506934144 
117.8                          0.879190853819088 -171.5541542118  0.000497119739305191 -147.765421693216 0.000497119739305193 -147.765421693214 0.88221946303582 -171.431598110136 
! Gamma         0.706922165261964 1548.8747682118  0.706953541743996 1548.87527338425 
! Port Impedance         369.883737229125 0.186270219032923 369.871508902107 0.186266498201398 
117.9                          0.878473395312487 178.060312965848 0.000627312575883268 -160.211357349753 0.000627312575883274 -160.211357349752 0.881517836371498 178.18414026524  
! Gamma         0.705875516985277 1552.21383702939 0.70590694669279 1552.21434125549 