! Touchstone file exported from HFSS 2020.2.4
!        File:           D:/Project/Deacon_v3/240214_MPW12_Gap_WG_Tester_D2A/Gap_WG_Tester_D2.aedt
!        Generated:      11:46:46 AM  Mar 20, 2025
!        Design:         Thru
!        Project:        Gap_WG_Tester_D2
!        Setup:          Setup1
!        Solution:       Sweep
!
! Variables:
!        C_G = 4um
!        C_H = 0.5mm
!        E_P = 133um
!        S_H1 = 260um
!        S_H2 = 0.013mm
!        S_H3 = 8um
!        S_X = 30mm
!        S_X0 = 15mm
!        S_Y = 15mm
!        S_Y0 = 7.5mm
!        TL_G = 40um
!        TL_L = 9.64678486627962mm
!        TL_W = 0.24mm
!        TR_L = 706.43026744077um
!        TR_L2 = 226.8691264263um
!        TR_L3 = 373.29154801399um
!        TR_P = 109.62537243288um
!        TR_W = 1597.2041747747um
!        TR_W2 = 282.226541747um
!        V_PBO = 20um
!        V_Pad = 40um
!        V_R = 20um
!        WG_L = 0.8255mm
!        WG_W = 1.651mm
!        th = 5um
!
!Data is not renormalized
# GHZ S MA
! Terminal data exported
! Port[1] = 1
! Port[2] = 2
110                            0.947198506714853 135.013501742901 0.000577450951569688 -131.367173471714 0.000577450951569726 -131.367173471685 0.946329064696671 135.001225602583 
! Gamma         0.816975618517679 1272.16682876521 0.816977292877523 1272.16704416102 
! Port Impedance         420.533891469016 0.281641437599453 420.539261465301 0.281657213850873 
110.1                          0.94746294285796 134.712276644601 0.000580178958956785 -132.929056319948 0.000580178958971532 -132.929056309671 0.946575706846823 134.699669210322 
! Gamma         0.815084554295047 1275.96153908047 0.815086229969756 1275.96175383971 
! Port Impedance         419.664277612172 0.279740990646645 419.669636395997 0.279756715153983 
110.2                          0.947689816435668 134.408054014841 0.000582860514497524 -134.646022650352 0.000582860514528081 -134.646022629383 0.946788217211159 134.395303990053 
! Gamma         0.813210176292611 1279.74843022717 0.81321185327654 1279.74864435493 
! Port Impedance         418.802379573439 0.277866643625115 418.80772724506  0.277882316957096 
110.3                          0.947878176333976 134.100853745222 0.000585485029570549 -136.54034619884 0.000585485029618024 -136.540346166711 0.946965799111728 134.088127149187 
! Gamma         0.811352258237057 1283.52757141303 0.811353936524676 1283.52778491433 
! Port Impedance         417.948090770677 0.276017907975955 417.953427428939 0.276033530692731 
110.4                          0.948027020626139 133.790696171038 0.000588040937424966 -138.638774843438 0.000588040937490425 -138.638774799663 0.947107592176707 133.778134334747 
! Gamma         0.809510578111967 1287.29903089226 0.80951225769786 1287.29924377203 
! Port Impedance         417.101306642967 0.274194306867582 417.106632385334 0.274209879520823 
110.5                          0.948135288677121 133.477602103624 0.000590516041075509 -140.97366526105 0.000590516041159917 -140.973665205136 0.947212661329691 133.465319468527 
! Gamma         0.807684918055454 1291.06287598359 0.80768659893431 1291.06308824674 
! Port Impedance         416.261924601815 0.27239537485314 416.267239524395 0.272410897986124 
110.6                          0.948201851868097 133.161592882655 0.000592898259315944 -143.584456419442 0.000592898259420089 -143.584456350905 0.947279983746442 133.149674575926 
! Gamma         0.80587506426079 1294.81917308793 0.805876746427404 1294.81938473926 
! Port Impedance         415.429843983784 0.270620657539667 415.435148181361 0.270636131687383 
110.7                          0.948225502684169 132.842690455616 0.000595177069523217 -146.519591922029 0.000595177069647604 -146.519591840423 0.94730843336062 132.831189611929 
! Gamma         0.804080806879917 1298.56798770545 0.804082490329186 1298.56819874972 
! Port Impedance         414.60496600451  0.268869711268577 414.610259570567 0.268885136957828 
110.8                          0.948204941855815 132.520917494143 0.000597346158655351 -149.839034002221 0.000597346158800003 -149.839033907183 0.947296762402303 132.509852289693 
! Gamma         0.802301939929757 1302.30938445244 0.802303624656677 1302.30959489435 
! Port Impedance         413.787193714044 0.267142102807002 413.792476740791 0.267157480556513 
110.9                          0.9481387631804  132.196297560083 0.000599408157381636 -153.617546873368 0.00059940815754586 -153.617546764701 0.947243579330054 132.18564792009  
! Gamma         0.800538261201208 1306.04342707764 0.800539947200871 1306.04363692181 
! Port Impedance         412.97643195349  0.265437409049589 412.981704531888 0.265452739370115 
111                            0.948025435571728 131.868855338476 0.000601382948509916 -157.948951408542 0.000601382948691939 -157.948951286333 0.947147322361712 131.85855927469  
! Gamma         0.798789572170755 1309.77017847822 0.798791259438348 1309.77038772924 
! Port Impedance         412.17258731288  0.263755216730316 412.177849532664 0.263770500124752 
111.1                          0.947863281789875 131.538616960484 0.000603322064070625 -162.951531958532 0.000603322064267152 -162.951531823361 0.947006227611689 131.528566490635 
! Gamma         0.797055677914587 1313.48970071541 0.797057366445387 1313.48990937778 
! Port Impedance         411.375568090258 0.262095122143981 411.38082003996  0.262110359107456 
111.2                          0.947650453186994 131.205610447199 0.000605333308054991 -168.774624285654 0.000605333308260602 -168.774624138915 0.94681829059137 131.195647044446 
! Gamma         0.795336387025153 1317.20205502974 0.795338076814525 1317.20226310793 
! Port Impedance         410.585284251914 0.260456730876957 410.59052601889  0.260471921896923 
111.3                          0.947384899662928 130.869866316038 0.000607622060902087 -175.605937294137 0.000607622061108653 -175.605937138545 0.946581219508677 130.85977583423  
! Gamma         0.793631511530069 1320.90730185593 0.793633202573465 1320.90750935433 
! Port Impedance         409.801647393758 0.258839657546897 409.806879064207 0.258854803103182 
111.4                          0.947064333853144 130.531418406194 0.000610558206752905 176.322044872202 0.000610558206949235 176.322045031833 0.946292378393174 130.520925427735 
! Gamma         0.791940866813295 1324.60550083744 0.791942559106251 1324.6057077604  
! Port Impedance         409.024570703764 0.25724352555105 409.029792362748 0.257258626115841 
111.5                          0.946686188365904 130.190304999897 0.000614777480221118 166.730906858285 0.000614777480393505 166.730907013934 0.945948717548755 130.179066559889 
! Gamma         0.790264271538514 1328.29671084068 0.790265965076646 1328.29691719249 
! Port Impedance         408.253968925471 0.255667966822922 408.259180656943 0.255683022860602 
111.6                          0.946247564642403 129.846570344322 0.000621314205976793 155.309814502214 0.000621314206111766 155.309814641281 0.945546688165577 129.834169001753 
! Gamma         0.788601547574638 1331.98098996891 0.788603242353643 1331.98119575381 
! Port Impedance         407.489758322504 0.254112621597085 407.49496020932  0.25412763356371 
111.7                          0.945745171731852 129.500266718002 0.000631717436528777 141.760513597992 0.000631717436619561 141.760513702128 0.945082137067912 129.486202979123 
! Gamma         0.786952519923366 1335.6583955758  0.786954215939018 1335.65860079797 
! Port Impedance         406.731856644064 0.252577138182232 406.737048768013 0.252592106524057 
111.8                          0.945175252958267 129.151457240109 0.000647994953576395 125.894675738753 0.000647994953632569 125.894675784175 0.944550176490997 129.135141402283 
! Gamma         0.785317016648741 1339.3289842787  0.785318713896889 1339.32918894228 
! Port Impedance         405.980183091381 0.251061172743491 405.985365533202 0.251076097892646 
111.9                          0.944533498124188 128.800219697526 0.000672087675985984 107.787113453898 0.000672087676038614 107.78711341523  0.943945022422059 128.780963292423 
! Gamma         0.783694868808624 1342.99281197162 0.783696567285187 1342.99301608068 
! Port Impedance         405.234658285081 0.249564389098546 405.239831124484 0.249579271459145 
112                            0.943814938588623 128.446651772596 0.000704659617429508 87.9280647501494 0.000704659617515048 87.9280646087896 0.943259793373028 128.423658975989 
! Gamma         0.782085910388036 1346.64993383789 0.782087610089009 1346.65013739646 
! Port Impedance         404.495204233469 0.248086458541215 404.500367549131 0.248101298445269 
112.1                          0.943013822354901 128.090878207373 0.000743742791176878 67.2448439299747 0.000743742791295258 67.2448436836178 0.942486259476199 128.063237898612 
! Gamma         0.78048997823431 1350.30040436254 0.780491679155754 1350.30060737462 
! Port Impedance         403.761744301822 0.246627059594054 403.766898171211 0.246641857304741 
112.2                          0.942123466368862 127.733060657426 0.000784772068239081 46.8956143599061 0.00078477206832534 46.8956140259462 0.941614529605204 127.699740335924 
! Gamma         0.778906911993977 1353.94427734446 0.778908614132022 1353.94447981397 
! Port Impedance         403.034203182022 0.245185877248708 403.039347681536 0.245200633529585 
112.3                          0.941136083858744 127.373411297405 0.000822769266877997 27.9199099206759 0.000822769266833637 27.9199095297891 0.940632662134158 127.333254928939 
! Gamma         0.777336554051359 1357.58160590823 0.7773382574022  1357.58180783906 
! Port Impedance         402.312506862751 0.243762603987943 402.317642068427 0.24377731946253 
112.4                          0.940042586294065 127.012211680212 0.000854862408236236 10.9686513586115 0.000854862407992137 10.9686509434441 0.939526183733453 126.963944969978 
! Gamma         0.775778749468788 1361.21244251568 0.775780454028683 1361.21264391167 
! Port Impedance         401.596582602519 0.242356939152682 401.601708589258 0.242371614115291 
112.5                          0.938832363392784 126.649838974176 0.000880917975495859 -3.74692975190448 0.000880917975041533 -3.74693016511851 0.938277502003291 126.592087901645 
! Gamma         0.774233345928419 1364.83683897727 0.77423505169369 1364.83703984221 
! Port Impedance         400.886358901099 0.240968588205692 400.891475742751 0.240983222992535 
112.6                          0.937493052332687 126.286802575736 0.000902492389604769 -16.3365162990481 0.000902492388973632 -16.3365166930253 0.936865205477796 126.218134854315 
! Gamma         0.77270019367558 1368.45484646317 0.772701900642608 1368.45504680081 
! Port Impedance         400.181765472531 0.239597262943431 400.186873242016 0.239611857921304 
112.7                          0.936010322048528 125.923795295859 0.000921603472295635 -27.0719978826921 0.000921603471537916 -27.0719982477586 0.935263266267049 125.842800655853 
! Gamma         0.771179145463606 1372.06651551409 0.771180853628832 1372.06671532814 
! Port Impedance         399.482733218955 0.238242681341135 399.487831988292 0.238257236885718 
112.8                          0.934367725668554 125.561764910976 0.000940081473913388 -36.2706798595235 0.000940081473077864 -36.2706801911487 0.933440211861702 125.467200159731 
! Gamma         0.769670056500124 1375.6718960519  0.769671765860047 1375.67209534602 
! Port Impedance         398.789194205059 0.236904567379228 398.794284045384 0.236919083866767 
112.9                          0.932546723083386 125.202013835869 0.00095942277002924 -44.2339662366862 0.000959422769156146 -44.2339665333391 0.931358444143533 125.093054549086 
! Gamma         0.768172784394735 1379.27103739005 0.768174494945909 1379.27123616786 
! Port Impedance         398.101081633183 0.235582650882869 398.106162614763 0.235597128686999 
113                            0.930527061804873 124.84633674494  0.000980877836087857 -51.2247732727208 0.000980877835208284 -51.2247735344042 0.928974114640951 124.723001645918 
! Gamma         0.766687189108048 1382.86398824369 0.766688900847083 1382.86418650876 
! Port Impedance         397.418329819067 0.234276667369519 397.423402011316 0.234291106859962 
113.1                          0.928287851907057 124.497207209429 0.00100560863062193 -57.465336973009 0.00100560862975995 -57.4653372003558 0.926238424449621 124.361055400007 
! Gamma         0.765213132902037 1386.45079673965 0.765214845825595 1386.45099449551 
! Port Impedance         396.740874168231 0.232986357902194 396.74593763972  0.233000759444188 
113.2                          0.925809913966485 124.158022363858 0.0010348601907086 -63.143905935372 0.00103486018988416 -63.1439061291137 0.923102088021627 124.013263710111 
! Gamma         0.763750480291661 1390.03151042615 0.763752194396457 1390.03170767631 
! Port Impedance         396.068651152957 0.231711468947551 396.073705971431 0.231725832901612 
113.3                          0.923080353474733 123.833403507325 0.00107015050800258 -68.4248785641834 0.00107015050723465 -68.4248787248261 0.919526230383646 123.688586052608 
! Gamma         0.762299097997739 1393.60617628238 0.762300813280538 1393.60637303027 
! Port Impedance         395.401598289865 0.230451752238396 395.406644522257 0.23046607896023 
113.4                          0.920100822076715 123.529518306818 0.00111351425397502 -73.4607577215642 0.00111351425328544 -73.4607578491657 0.915505303488813 123.399890194619 
! Gamma         0.760858854901003 1397.17484072778 0.760860571358621 1397.17503697682 
! Port Impedance         394.739654118061 0.229206964640386 394.744691830502 0.229221254480872 
113.5                          0.916901417512938 123.254314810061 0.00116786706399983 -78.4067744213478 0.00116786706341886 -78.4067745153154 0.911109922239931 123.164617574192 
! Gamma         0.759429621997331 1400.7375496312  0.75943133962663 1400.73774538478 
! Port Impedance         394.082758177838 0.227976868022723 394.087787435673 0.227991121327944 
113.6                          0.913562081301098 123.017407611932 0.0012376133247303 -83.4415449957797 0.00123761332430668 -83.4415450546257 0.906555897504682 123.003897021486 
! Gamma         0.758011272354101 1404.29434831989 0.758012991151992 1404.29454358133 
! Port Impedance         393.430850989918 0.226761229132703 393.435871857716 0.226775446243998 
113.7                          0.910241209212291 122.829116536475 0.00132973965835711 -88.8016500203152 0.00132973965817907 -88.8016500413112 0.902289339368627 122.937721529098 
! Gamma         0.756603681067643 1407.84528158818 0.756605401031083 1407.84547636079 
! Port Impedance         392.783874035212 0.225559819473985 392.788886576784 0.22557400072801 
113.8                          0.907204336216228 122.697918889837 0.00145588890261359 -94.8489963703396 0.00145588890285893 -94.8489963490196 0.89903078818657 122.973479512893 
! Gamma         0.755206725221752 1411.39039370614 0.755208446347744 1411.39058799318 
! Port Impedance         392.141769735098 0.224372415188426 392.146774013502 0.224386560917227 
113.9                          0.904832044261103 122.62572289224  0.0016363591286609 -102.22012696961 0.00163635912973199 -102.220126899264 0.897656685393013 123.089303306859 
! Gamma         0.753820283847236 1414.92972842793 0.753822006132825 1414.92992223262 
! Port Impedance         391.504481432173 0.223198796941388 391.509477509731 0.223212907472471 
114                            0.903571231942165 122.601666909278 0.00190681026663949 -112.195925656587 0.00190681026957348 -112.195925529261 0.898825700147344 123.224764107221 
! Gamma         0.752444237882461 1418.4633290001  0.752445961324737 1418.46352232563 
! Port Impedance         390.8719533715   0.222038749810376 390.876941309809 0.222052825466787 
114.1                          0.903801573672164 122.597945709016 0.00231627033391226 -127.659264703475 0.00231627034165125 -127.659264523283 0.902521302502289 123.297363852726 
! Gamma         0.751078470134872 1421.99123816957 0.751080194730968 1421.9914310191  
! Port Impedance         390.244130682312 0.220892063176915 390.249110542254 0.220906104277314 
114.2                          0.905650099571565 122.573238853529 0.00278316327684282 -154.622656800919 0.00278316329527862 -154.622656663008 0.907950817178246 123.241893881997 
! Gamma         0.749722865243459 1425.51349819163 0.749724590990551 1425.51369056827 
! Port Impedance         389.620959360161 0.219758530621534 389.625931201915 0.219772537480274 
114.3                          0.908874054114028 122.485799220438 0.00257032853908289 165.526321993592 0.00257032855845237 165.526321871367 0.913969680768641 123.038961309344 
! Gamma         0.748377309642138 1429.0301508376  0.748379036537442 1429.03034274445 
! Port Impedance         389.002386249514 0.218637949821784 389.007350132567 0.218651922748985 
114.4                          0.912927453047097 122.309190512946 0.00165077242283621 132.669025586598 0.0016507724296283 132.669025359679 0.919627262897448 122.709979294458 
! Gamma         0.747041691524024 1432.54123740251 0.747043419564794 1432.5414288426  
! Port Impedance         388.388359026765 0.217530122453156 388.393315009926 0.217544061754781 
114.5                          0.917179585640553 122.03956667318  0.000966863796385885 112.902534051917 0.000966863798175663 112.902533883811 0.924409905585013 122.293322201437 
! Gamma         0.745715900806586 1436.04679871244 0.745717629990093 1436.0469896888  
! Port Impedance         387.77882618367  0.216434854092835 387.783774325074 0.216448760070761 
114.6                          0.921126806367639 121.691087321786 0.000565221525587378 99.2559844818423 0.000565221525999491 99.255984398792  0.928178480370237 121.825068075264 
! Gamma         0.744399829097709 1439.54687513188 0.744401559421136 1439.5470656475  
! Port Impedance         387.173737011168 0.215351954126168 387.178677368292 0.215365827078266 
114.7                          0.924482295812533 121.28575315367  0.000320530991884168 86.6435520664919 0.000320530991846267 86.6435520797643 0.931005442987416 121.331481850185 
! Gamma         0.743093369663279 1443.04150657088 0.743095101122829 1443.0416966287  
! Port Impedance         386.573041583602 0.21428123565579 386.577974213275 0.214295075875988 
114.8                          0.92715241683449 120.845011038754 0.000164516114876949 69.1927631118734 0.0001645161145871 69.1927632531278 0.933044271329065 120.82905786851  
! Gamma         0.741796417401243 1446.53073249199 0.741798149984766 1446.53092209495 
! Port Impedance         385.976690743322 0.213222515413285 385.981615701731 0.213236323191642 
114.9                          0.92916724067635 120.385738587839 7.57293430786221E-05 27.5894789716266 7.57293424674024E-05 27.589479137274  0.934457967364468 120.327102857591 
! Gamma         0.74050886877049 1450.01459191723 0.740510602489599 1450.01478106819 
! Port Impedance         385.384636085639 0.212175613673333 385.389553428343 0.212189389296108 
115                            0.930616266841773 119.919577227712 7.98190896689868E-05 -40.4641184607113 7.98190891773513E-05 -40.4641187865452 0.935389672403589 119.830332156589 
! Gamma         0.739230621829157 1453.4931234347  0.739232356682137 1453.49331213654 
! Port Impedance         384.796829944155 0.211140354170243 384.801739726092 0.211154097919961 
115.1                          0.931606591051377 119.453814559538 0.000125395681025911 -68.2589530879652 0.000125395680770714 -68.2589533459442 0.935955216413662 119.340760797194 
! Gamma         0.737961576157746 1456.96636520529 0.73796331213919 1456.96655346083 
! Port Impedance         384.213225376427 0.210116564016801 384.218127651927 0.210130276172319 
115.2                          0.93224138215015 118.992616292822 0.000167318641208238 -80.4377998323446 0.000167318641057836 -80.4378000068624 0.936244842250031 118.858908719535 
! Gamma         0.736701632833466 1460.43435496912 0.736703369940113 1460.43454278116 
! Port Impedance         383.633776149979 0.209104073625363 383.638670972767 0.209117754461933 
115.3                          0.932611386337387 118.538089084807 0.000201347023726737 -88.1191074410736 0.000201347023634255 -88.1191075579252 0.936327781615459 118.384516448102 
! Gamma         0.735450694408939 1463.89713005185 0.735452432638038 1463.89731742317 
! Port Impedance         383.058436728629 0.208102716631114 383.063324151842 0.208116366420449 
115.4                          0.932793290403405 118.091047394558 0.000228335987752313 -94.0395255355836 0.000228335987698358 -94.0395256090334 0.936257036814229 117.916951350809 
! Gamma         0.734208664882808 1467.354727371   0.734210404231776 1467.35491430433 
! Port Impedance         382.487162259153 0.207112329817436 382.492042335341 0.207125948827769 
115.5                          0.932851104408124 117.651514357231 0.000249473732889438 -99.1517589266169 0.000249473732863856 -99.1517589645545 0.936073471342393 117.455429676109 
! Gamma         0.732975449672053 1470.80718344194 0.732977190138373 1470.80736994    
! Port Impedance         381.919908558243 0.206132753043303 381.924781339384 0.206146341539448 
115.6                          0.932838533844562 117.219024909307 0.00026574866399069 -103.887457203205 0.00026574866398669 -103.887457210277 0.935809042815654 116.999132397077 
! Gamma         0.731750955585121 1474.25453438401 0.731752697166277 1474.25472044947 
! Port Impedance         381.356632099776 0.205163829172652 381.361497637282 0.205177387416065 
115.7                          0.932801390870791 116.792793205527 0.000277926387979913 -108.486094686938 0.000277926387991724 -108.486094665981 0.935489273270471 116.547260936519 
! Gamma         0.730535090795717 1477.69681592628 0.730536833489113 1477.69700156181 
! Port Impedance         380.797290002375 0.204205404005668 380.8021483471   0.204218932254502 
115.8                          0.932779648931192 116.371789578178 0.000286598749894574 -113.106191424611 0.000286598749916265 -113.106191377375 0.935135118428864 116.099059107197 
! Gamma         0.729327764817201 1481.13406341342 0.729329508619955 1481.13424862163 
! Port Impedance         380.241840017255 0.203257326211914 380.246691219505 0.203270824721075 
115.9                          0.93280899257841 115.954756949864 0.000292236261650416 -117.87118693507 0.000292236261675202 -117.871186862603 0.934764392345726 115.653815875928 
! Gamma         0.728128888477577 1484.56631181127 0.728130633385886 1484.56649659478 
! Port Impedance         379.690240516351 0.202319447265256 379.695084625889 0.202332916286461 
116                            0.932921798575146 115.540185728983 0.000295234792449447 -122.891951530764 0.000295234792469092 -122.891951433659 0.934392878225949 115.210856645127 
! Gamma         0.726938373895053 1487.99359571249 0.726940119901717 1487.99378007386 
! Port Impedance         379.142450480708 0.201391621380528 379.147287546765 0.201405061162358 
116.1                          0.933147486205795 115.126259871125 0.000295959006944709 -128.279874793838 0.000295959006949006 -128.279874672414 0.934035229524422 114.769526542021 
! Gamma         0.725756134454151 1491.41594934192 0.725757881541457 1491.4161332837  
! Port Impedance         378.598429489141 0.200473705451881 378.603259560423 0.200487116239834 
116.2                          0.933512137509363 114.71078456543  0.000294787640607587 -134.155650948957 0.000294787640583742 -134.155650803463 0.933705743808257 114.329166388265 
! Gamma         0.724582084782359 1494.83340656197 0.724583832957829 1494.83359008673 
! Port Impedance         378.058137707153 0.199565558992765 378.06296083185  0.199578941029306 
116.3                          0.934037239232039 114.291107783267 0.000292166650111892 -140.65529007736 0.00029216665004396 -140.655289908258 0.933419075907216 113.889079700634 
! Gamma         0.723416140727301 1498.24600087788 0.723417890023886 1498.2461839881  
! Port Impedance         377.5215358761   0.198667044077495 377.526352101888 0.198680397602111 
116.4                          0.934737365439945 113.864053935616 0.000288676773692964 -147.932517365132 0.000288676773561323 -147.932517173523 0.933190944575773 113.448486522533 
! Gamma         0.722258219334426 1501.65376544287 0.72225996973945 1501.65394814099 
! Port Impedance         376.988585302591 0.197778025284354 376.993394676647 0.197791350533598 
116.5                          0.935616644373632 113.425898254332 0.000285121097812914 -156.154020420425 0.000285121097594157 -156.154020208717 0.933038873346656 113.00645630744  
! Gamma         0.721108238825187 1505.05673306316 0.721109990330002 1505.05691535164 
! Port Impedance         376.459247848143 0.196898369640179 376.464050417147 0.196911666847724 
116.6                          0.936663999622682 112.972424205667 0.000282632627015716 -165.48050488287 0.000282632626683443 -165.480504655676 0.932982980382609 112.561806320396 
! Gamma         0.719966118575707 1508.45493620299 0.71996787117572 1508.45511808425 
! Port Impedance         375.933485919048 0.196027946566403 375.938281729191 0.196041215963085 
116.7                          0.937847507820352 112.499119212849 0.000282785768074813 -176.02401997778 0.000282785767602309 -176.02401974286 0.93304676715204 112.112942213456 
! Gamma         0.718831779095911 1511.84840698945 0.718833532787952 1511.84858846589 
! Port Impedance         375.411262456472 0.195166627826484 375.416051553465 0.195179869640352 
116.8                          0.93910884047592 112.001566864797 0.00028766487285024 172.222379242242 0.000287664872215739 172.222379473746 0.933257684546358 111.657600463827 
! Gamma         0.717705142009128 1515.23717721731 0.717706896790585 1515.2373582913  
! Port Impedance         374.892540926775 0.194314287474704 374.897323355856 0.194327501931065 
116.9                          0.940359616389194 111.476071125903 0.000299812137211412 159.46127061523  0.00029981213640544 159.461270830338 0.933646806615015 111.192423707658 
! Gamma         0.716586130032127 1518.62127835368 0.716587885900644 1518.62145902758 
! Port Impedance         374.377285312043 0.193470801806285 374.382061117978 0.193483989127746 
117                            0.941482292295787 110.92048291173  0.000322000692946297 146.112612025532 0.000322000691977682 146.112612213123 0.934245779657951 110.712256158335 
! Gamma         0.715474666955598 1522.00074154265 0.715476423908955 1522.0009218188  
! Port Impedance         373.865460100817 0.192636049308778 373.870229327915 0.192649209715292 
117.1                          0.942338323420763 110.335088361083 0.00035690739666999 132.719742152424 0.000356907395566042 132.719742307123 0.935076247766352 110.209000806332 
! Gamma         0.714370677625049 1525.37559760984 0.714372435661109 1525.37577749053 
! Port Impedance         373.357030279042 0.191809910614701 373.361792971155 0.191823044323612 
117.2                          0.94278492632367 109.723294007502 0.000406902139593573 119.770024285841 0.000406902138393617 119.770024409116 0.936119704119599 109.669937121711 
! Gamma         0.713274087922125 1528.74587706678 0.713275847038805 1528.7460565543  
! Port Impedance         372.851961321197 0.190992268455384 372.856717521729 0.191005375681463 
117.3                          0.942698568027159 109.091785697213 0.000474123953413645 107.552808799637 0.000474123952160384 107.552808897533 0.937240249507141 109.07603493435  
! Gamma         0.712184824746325 1532.11161011539 0.712186584941581 1532.111789212   
! Port Impedance         372.350219181624 0.190183007615973 372.354968933539 0.190196088571466 
117.4                          0.941999351959044 108.449934538716 0.000560800637569925 96.1350858983349 0.000560800636303846 96.1350859781712 0.938013980504616 108.403669728919 
! Gamma         0.711102815997113 1535.47282665218 0.71110457726893 1535.47300536012 
! Port Impedance         371.851770286044 0.189382014891585 371.856513631868 0.189395069786249 
117.5                          0.94066824425871 107.808488814408 0.000669648819994261 85.4232568683233 0.000669648818752223 85.4232569364355 0.937475373988096 107.641336663345 
! Gamma         0.710027990556409 1538.82955627252 0.710029752902795 1538.82973459401 
! Port Impedance         371.356581523253 0.188589179044555 371.361318505083 0.188602208085698 
117.6                          0.938750808210713 107.177904145712 0.000804249352306545 75.2403417016009 0.000804249351123141 75.2403417624596 0.934210558998682 106.837987837391 
! Gamma         0.708960278271461 1542.18182827479 0.70896204169044 1542.18200621202 
! Port Impedance         370.864620236997 0.18780439076276 370.869350896507 0.187817394155281 
117.7                          0.93634646391781 106.566828242449 0.000969390222062177 65.3799714739703 0.00096939022097199 65.379971530176  0.927806539839542 106.139776107342 
! Gamma         0.707899609938074 1545.52967166441 0.707901374427678 1545.52984921957 
! Port Impedance         370.37585421802  0.18702754261898 370.380578596464 0.187040520565406 
117.8                          0.933588082063311 105.981161109413 0.00117140839162845 55.6331833226504 0.00117140839066799 55.6331833752328 0.920470380977976 105.673059492502 
! Gamma         0.706845917284203 1548.87311515791 0.706847682842458 1548.87329233315 
! Port Impedance         369.890251696277 0.186258529031272 369.894969834499 0.186271481731795 
117.9                          0.930619493712063 105.423832473208 0.00141854448745581 45.7969767329818 0.00141854448666417 45.7969767817496 0.914974583141203 105.388982564644 
! Gamma         0.7057991329539  1552.21218718677 0.705800899578795 1552.21236398423 
! Port Impedance         369.407781333321 0.185497246224323 369.412493271756 0.185510173876838 