! Touchstone file exported from HFSS 2020.2.4
!        File:           D:/Project/Deacon_v3/240214_MPW12_Gap_WG_Tester_D2A/Gap_WG_Tester_D2.aedt
!        Generated:      11:43:28 AM  Mar 20, 2025
!        Design:         Line
!        Project:        Gap_WG_Tester_D2
!        Setup:          Setup1
!        Solution:       Sweep
!
! Variables:
!        C_G = 4um
!        C_H = 0.5mm
!        Deembedding = 25.4mm
!        E_P = 133um
!        S_H1 = 260um
!        S_H2 = 0.013mm
!        S_H3 = 8um
!        S_X = 30mm
!        S_X0 = 15mm
!        S_Y = 15mm
!        S_Y0 = 7.5mm
!        TL_G = 40um
!        TL_L = 12.1467848662796mm
!        TL_W = 0.24mm
!        TR_L = 706.43026744077um
!        TR_L2 = 226.8691264263um
!        TR_L3 = 373.29154801399um
!        TR_P = 109.62537243288um
!        TR_W = 1597.2041747747um
!        TR_W2 = 282.226541747um
!        V_PBO = 20um
!        V_Pad = 40um
!        V_R = 20um
!        WG_L = 0.8255mm
!        WG_W = 1.651mm
!        th = 5um
!
!Data is not renormalized
# GHZ S MA
! Terminal data exported
! Port[1] = 1
! Port[2] = 2
110                            0.909940066481901 -41.2278526994327 0.000616016307960209 113.917757524672 0.000616016307960209 113.917757524672 0.909877340248934 -41.2158724789986 
! Gamma         0.817004959495314 1272.16746771233 0.817003381412211 1272.16742345235 
! Port Impedance         420.50713874861  0.281634943018371 420.515914011417 0.281654074998036 
110.1                          0.910226720812023 -52.807160799081 0.000609619038812311 104.153897589071 0.000609619038812311 104.153897589071 0.910535442874072 -52.7903064481907 
! Gamma         0.815113966823644 1275.9621763051  0.815112386229916 1275.96213216853 
! Port Impedance         419.637577458903 0.279734578252696 419.646334667334 0.279753641679192 
110.2                          0.910460031879619 -64.3661946299754 0.000603020716364164 94.6562557968051 0.000603020716364165 94.6562557968052 0.911124594332471 -64.3473508363293 
! Gamma         0.813239660142238 1279.74906574345 0.813238077042579 1279.74902172927 
! Port Impedance         418.775731537884 0.277860312162206 418.784470851832 0.277879307843383 
110.3                          0.910637906123068 -75.9051230355469 0.000596266474225349 85.4772455843196 0.00059626647422535 85.4772455843199 0.911636952246374 -75.8872174693733 
! Gamma         0.811381813179916 1283.52820523487 0.811380227578995 1283.52816134212 
! Port Impedance         417.921494409371 0.276011656212468 417.930215986467 0.276030584939543 
110.4                          0.910758078130071 -87.4241073749796 0.000589435997671518 76.684068181945  0.000589435997671519 76.6840681819452 0.912063775961961 -87.410074663694 
! Gamma         0.809540203922359 1287.29966303341 0.809538615824826 1287.29961926109 
! Port Impedance         417.074761518293 0.274188133595699 417.083465513963 0.27420699614423 
110.5                          0.91081808682552 -98.9233005064589 0.000582665094967983 68.3637732871441 0.000582665094967984 68.3637732871443 0.912395367465559 -98.9160345131286 
! Gamma         0.807714614509745 1291.06350645762 0.807713023920229 1291.06346280478 
! Port Impedance         416.235430281898 0.272389278888183 416.244116849415 0.272408076018916 
110.6                          0.910815248264874 -110.402845484864 0.000576181684747215 60.6302106256997 0.000576181684747217 60.6302106257    0.912621032170316 -110.40513717484 
! Gamma         0.805904831137376 1294.81980190821 0.805903238060487 1294.81975837389 
! Port Impedance         415.403400042391 0.270614637719475 415.412069332918 0.270633370179067 
110.7                          0.910746624638987 -121.862873896772 0.000570366688641441 53.6334530000166 0.000570366688641442 53.6334530000167 0.912729072781346 -121.877331691149 
! Gamma         0.804110643959197 1298.56861488519 0.804109048399522 1298.56857146846 
! Port Impedance         414.578572020945 0.268863766452905 414.587224183584 0.268882434974556 
110.8                          0.910608989108239 -133.303503733896 0.000565858248426409 47.5721326388595 0.000565858248426412 47.5721326388599 0.912706834348371 -133.332452943222 
! Gamma         0.802331846994096 1302.31001000467 0.802330248956203 1302.3099667046  
! Port Impedance         413.760849273054 0.267136231876946 413.769484454888 0.267154837180952 
110.9                          0.910398786128708 -144.724836678237 0.000563730930158865 42.708339440408  0.000563730930158871 42.7083394404084 0.912540824588389 -144.770194490594 
! Gamma         0.800568238034912 1306.04405101521 0.800566637523348 1306.0440078309  
! Port Impedance         412.950136645167 0.265431610907025 412.958754991301 0.265450153701262 
111                            0.910112087044102 -156.126954636156 0.000565800862333827 39.3823167691066 0.00056580086233383 39.3823167691069 0.912216940420326 -156.190077363147 
! Gamma         0.798819618560036 1309.77080081384 0.798818015579327 1309.77075774437 
! Port Impedance         412.146340732567 0.263749490297364 412.15494238617  0.26376797127772 
111.1                          0.909744540924686 -167.509915312314 0.000575124630196492 38.0186553689539 0.000575124630196496 38.0186553689543 0.911720838802783 -167.591415411602 
! Gamma         0.797085793647536 1313.4903214616  0.797084188202189 1313.4902785061  
! Port Impedance         411.349369838455 0.262089466362472 411.357954940795 0.262107886213231 
111.2                          0.909291320999165 -178.873746555244 0.000596728091489445 39.1069655718099 0.00059672809148945 39.1069655718105 0.911038496165471 -178.973278674364 
! Gamma         0.795366571891712 1317.20267419887 0.795364963986213 1317.20263135645 
! Port Impedance         410.559133934194 0.260451144707906 410.567702624675 0.260469504102096 
111.3                          0.908747067626628 169.781560869253 0.000638357253536368 43.137392183124  0.000638357253536374 43.1373921831244 0.910157003757994 169.665542531676 
! Gamma         0.793661765322   1320.90791946021 0.793660154960815 1320.90787673001 
! Port Impedance         409.775544620672 0.258834139969961 409.784097036873 0.25885243956967 
111.4                          0.908105829727611 158.456062515739 0.000710143383826386 50.5005055374729 0.000710143383826394 50.5005055374731 0.909065642620324 158.326568385109 
! Gamma         0.791971189324155 1324.60611688893 0.791969576511731 1324.60607427008 
! Port Impedance         408.99851509076  0.257238075563937 409.007051368466 0.257256316020599 
111.5                          0.907361008114959 147.149872065125 0.000819735744603032 61.403338987959  0.00081973574460304 61.4033389879593 0.907757266685104 147.011648657996 
! Gamma         0.790294662563628 1328.29732535128 0.790293047304392 1328.29728284295 
! Port Impedance         408.227960092811 0.255662583440657 408.236480366046 0.255680765395325 
111.6                          0.906505306522268 135.863176399986 0.000956808017356213 75.6819814843301 0.000956808017356222 75.6819814843304 0.906229989766893 135.722961237977 
! Gamma         0.78863200691107 1331.98160295037 0.788630389209432 1331.98156055172 
! Port Impedance         407.463795895178 0.254107303850943 407.472300296239 0.254125427934534 
111.7                          0.905530699720006 124.596254818877 0.00107375630294489 92.0204243834446 0.00107375630294489 92.0204243834449 0.904489116094747 124.462979057259 
! Gamma         0.786983047369895 1335.65900703972 0.786981427230245 1335.65896474993 
! Port Impedance         406.705940251716 0.252571885117727 406.714428911202 0.252589951951258 
111.8                          0.904428433517366 113.349503444903 0.00111316549528852 107.269712671124 0.00111316549528852 107.269712671124 0.902549171783287 113.234393378428 
! Gamma         0.785347612005835 1339.32959423656 0.785345989432546 1339.3295520548  
! Port Impedance         405.954312368229 0.251055983415536 405.962785415075 0.251073993610341 
111.9                          0.903189079479022 102.123466064768 0.00107595193752589 118.304243006174 0.00107595193752589 118.304243006174 0.900435790766123 102.039982662962 
! Gamma         0.783725531878411 1342.99342043473 0.78372390687584 1342.99337836021 
! Port Impedance         405.208832869844 0.24955926255705 405.217290431346 0.249577216714996 
112                            0.901802678932714 90.918872763033  0.00100545426076339 124.279812351484 0.0010054542607634 124.279812351484 0.89818710044653 90.882421242891  
! Gamma         0.782116640974286 1346.65054081742 0.782115013546773 1346.65049884935 
! Port Impedance         404.469423769267 0.248081393786509 404.477865971114 0.248099292500189 
112.1                          0.900259027671487 79.7366876957234 0.00093278343423486 126.007415630717 0.000932783434234859 126.007415630717 0.895854173134761 79.7640317961507 
! Gamma         0.780520776142402 1350.30100986954 0.780519146294276 1350.30096800713 
! Port Impedance         403.736008435908 0.246622055579677 403.744435402209 0.246639899432607 
112.2                          0.898548176201701 68.5781669994333 0.000868834366367856 124.60335384034  0.000868834366367855 124.60335384034  0.893500106476635 68.6865000432248 
! Gamma         0.778937777030882 1353.94488138984 0.778936144766457 1353.94483963232 
! Port Impedance         403.008511565833 0.245180933450151 403.016923419143 0.245198723016954 
112.3                          0.896661251715678 57.444926840521  0.000814955305455153 120.962559841053 0.000814955305455152 120.962559841053 0.891197417066341 57.6505868072093 
! Gamma         0.777367486025609 1357.58220850276 0.777365851349189 1357.58216684935 
! Port Impedance         402.286859152528 0.243757719761779 402.295256013877 0.243775455608363 
112.4                          0.894591747087836 46.3390194468719 0.000769655697379228 115.713565597998 0.000769655697379228 115.713565597998 0.889023698892049 46.6558866837729 
! Gamma         0.775809748190457 1361.21304367    0.775808111106338 1361.21300211996 
! Port Impedance         401.570978458446 0.242352113546951 401.579360447363 0.242369796230684 
112.5                          0.89233746534055 35.2630108078508 0.000731043929771059 109.285779618714 0.000731043929771058 109.285779618714 0.887055881404468 35.7006874688768 
! Gamma         0.774264411209096 1364.8374387019  0.774262771721566 1364.83739725448 
! Port Impedance         400.860797987304 0.240963820330575 400.869165221844 0.240981450400451 
112.6                          0.889903343288548 24.2200464097961 0.000697492641994204 101.974773982882 0.000697492641994201 101.974773982882 0.885363823591599 24.7819746270722 
! Gamma         0.772731325328348 1368.4554447685  0.772729683441691 1368.45540342295 
! Port Impedance         400.156247457125 0.239592551959514 400.164600053893 0.239610129956318 
112.7                          0.887305377823569 13.2138795125717 0.000667737019876427 93.9879394013494 0.000667737019876428 93.9879394013493 0.884004258814132 13.8955994643355 
! Gamma         0.771210343303017 1372.06711241038 0.771208699021516 1372.06707116599 
! Port Impedance         399.45725777398  0.238238026437295 399.465595848156 0.238255552893766 
112.8                          0.884575788630114 2.2488190744318  0.000640824067174796 85.4740841611182 0.000640824067174796 85.4740841611182 0.883016133553765 3.03659414445637 
! Gamma         0.769701320342184 1375.67249154931 0.769699673670116 1375.67245040534 
! Port Impedance         398.763761006427 0.236899967763917 398.772084671788 0.236917443204897 
112.9                          0.881769282341244 -8.67046749272481 0.000616039389452703 76.5424113067423 0.000616039389452703 76.5424113067423 0.882418119209525 -7.80041730735537 
! Gamma         0.768204114056881 1379.27163149859 0.768202464998518 1379.27159045434 
! Port Impedance         398.075690360613 0.235578105780547 398.083999729558 0.23559553072314 
113                            0.878969715835488 -19.539381730078 0.000592844285854819 67.2748240422709 0.000592844285854817 67.2748240422707 0.882208595627214 -18.6207832662089 
! Gamma         0.766718584409134 1382.86458097327 0.76671693296874 1382.86454002804 
! Port Impedance         397.392980156023 0.234272176018966 397.401275339598 0.234289550972684 
113.1                          0.876295495337198 -30.354138721183 0.000570828155330827 57.7340648701176 0.000570828155330827 57.7340648701176 0.88236787261496 -29.4294353503087 
! Gamma         0.765244593662321 1386.45138810006 0.765242939844144 1386.45134725314 
! Port Impedance         396.715565801863 0.232981919555575 396.723846909778 0.232999245022482 
113.2                          0.873900770856964 -41.1128697719076 0.000549674048886906 47.9692265468536 0.000549674048886906 47.9692265468536 0.882862005115917 -40.2305986268303 
! Gamma         0.763782006332798 1390.03210042706 0.763780350141061 1390.03205967778 
! Port Impedance         396.043383774041 0.231707082869811 396.051650914696 0.231724359344668 
113.3                          0.871968398209126 -51.816993233809 0.000529134104553439 38.0195804029659 0.000529134104553435 38.0195804029657 0.883647373993995 -51.027625413446 
! Gamma         0.762330689142769 1393.60676493336 0.762329030581661 1393.60672428102 
! Port Impedance         395.376371592746 0.230447417706819 395.38462487325  0.230464645677222 
113.4                          0.870690883718884 -62.4725366147714 0.000509012078624435 27.9173126076813 0.000509012078624433 27.9173126076812 0.884675251808542 -61.8229488725416 
! Gamma         0.760890510974346 1397.17542803828 0.760888850048009 1397.17538748222 
! Port Impedance         394.714467800596 0.229202680944235 394.722707326789 0.22921986089075 
113.5                          0.870238568162743 -73.0908432732849 0.000489150903377662 17.6895462824906 0.000489150903377662 17.6895462824906 0.885895777768543 -72.6181327717161 
! Gamma         0.759461342824779 1400.73813561057 0.7594596795373  1400.73809515013 
! Port Impedance         394.057611941342 0.227972634462933 394.065837817816 0.227989766859234 
113.6                          0.87072059572143 -83.6880197363056 0.000469423813301572 7.35989926466836 0.000469423813301572 7.35989926466837 0.887261027560859 -83.4139848969594 
! Gamma         0.758043057762801 1404.29493297736 0.758041392118212 1404.29489261188 
! Port Impedance         393.405744539108 0.226757045021607 393.413956869226 0.2267741303346  
113.7                          0.872151265078058 -94.2828024990031 0.000449728037555432 -3.05024970669296 0.000449728037555432 -3.05024970669295 0.88872709930912 -94.2107021205015 
! Gamma         0.756635530886082 1407.84586493289 0.756633862888355 1407.84582466172 
! Port Impedance         392.758807078156 0.225555684135054 392.767005964074 0.225572722825009 
113.8                          0.87443670707311 -104.893248624524 0.000429980381091058 -13.5206586674507 0.000429980381091058 -13.5206586674507 0.890255302615275 -105.008021418206 
! Gamma         0.755238639279733 1411.39097574711 0.755236968932792 1411.39093556962 
! Port Impedance         392.11674198316  0.224368327956027 392.124927525844 0.224385320476703 
113.9                          0.877390197479673 -115.533371743921 0.000410114247476498 -24.0311799482551 0.000410114247476496 -24.0311799482552 0.891812625779969 -115.805359523186 
! Gamma         0.753852261975854 1414.9303091741  0.753850589283578 1414.93026908964 
! Port Impedance         391.479492599966 0.223194757160554 391.48766489921  0.223211703959319 
114                            0.880771298874983 -126.210977735483 0.000390077825154824 -34.560681253362 0.000390077825154824 -34.560681253362 0.893371681553786 -126.601931794072 
! Gamma         0.752476279914078 1418.46390846028 0.752474604880315 1418.46386846824 
! Port Impedance         390.847003176833 0.222034756836587 390.855162331281 0.222051658354537 
114.1                          0.884333307636458 -136.927339079839 0.000369833291210038 -45.0858276870205 0.00036983329121004 -45.0858276870208 0.894910316584512 -137.396846970242 
! Gamma         0.751110575903095 1421.99181635251 0.751108898531665 1421.99177645225 
! Port Impedance         390.219218846142 0.220888116375878 390.227364953303 0.220904973047959 
114.2                          0.887862363781029 -147.678449426893 0.000349357003939295 -55.5796008562296 0.000349357003939295 -55.5796008562297 0.896411034774008 -148.189178492283 
! Gamma         0.749755034583112 1425.51407510595 0.749753354877823 1425.51403529686 
! Port Impedance         389.596085606545 0.219754629368982 389.604218762813 0.2197714416241  
114.3                          0.891199051465367 -158.457044000852 0.000328640778054508 -66.0093915267799 0.000328640778054508 -66.0093915267799 0.897860344777539 -158.978015264359 
! Gamma         0.748409542389246 1429.03072649184 0.74840786035389 1429.03068677332 
! Port Impedance         388.977550305562 0.218634093503273 388.985670606232 0.218650861764405 
114.4                          0.894242609718701 -169.254575916508 0.000307694488095916 -76.334438251974 0.000307694488095918 -76.3344382519738 0.899248105384861 -169.762495618226 
! Gamma         0.74707398751579 1432.5418118051  0.747072303154153 1432.54177217655 
! Port Impedance         388.363560622596 0.21752631046387 388.371668161881 0.217543035148176 
114.5                          0.896943457479177 179.937318183492 0.000286550459852994 -86.5022882261907 0.000286550459852993 -86.5022882261901 0.900566913189285 179.458171707459 
! Gamma         0.745748259881357 1436.04737187174 0.745746573197218 1436.04733233257 
! Port Impedance         387.75406505236  0.216431085837392 387.762159923411 0.216447767356322 
114.6                          0.899290642403826 169.125967068491 0.000265270436603637 -96.4438235501261 0.000265270436603637 -96.4438235501262 0.901811555435306 168.684696150524 
! Gamma         0.744432251094856 1439.54744705615 0.744430562091987 1439.54740760577 
! Port Impedance         387.149012888712 0.215348229018442 387.15709518363  0.21536486777784 
114.7                          0.901299014087004 158.317316646611 0.000243956423128861 -106.066241494182 0.000243956423128859 -106.066241494182 0.902978536318149 157.917700624216 
! Gamma         0.743125854422291 1443.04207726828 0.743124163104458 1443.0420379061  
! Port Impedance         386.548354208871 0.214277553118725 386.556424018725 0.214294149518929 
114.8                          0.902998573634902 147.515907259593 0.000222767518250662 -115.243292763063 0.000222767518250663 -115.243292763064 0.904065675815016 147.157721284583 
! Gamma         0.741828964754347 1446.53130197061 0.741827271125308 1446.53126269606 
! Port Impedance         385.952039858013 0.21321887487872 385.960097272857 0.213235429314666 
114.9                          0.904426698853386 136.72502044076  0.000201946022817723 -123.802402635432 0.000201946022817726 -123.802402635433 0.905071774830179 136.405210062005 
! Gamma         0.740541478574748 1450.01516018504 0.740539782638252 1450.01512099756 
! Port Impedance         385.36002143424  0.212172014581832 385.368066543128 0.212188527443149 
115                            0.905622997505663 125.946888265772 0.000181857441072836 -131.510063957714 0.000181857441072836 -131.510063957714 0.905996337760219 125.660538704166 
! Gamma         0.739263293929374 1453.49369049961 0.739261595689159 1453.49365139864 
! Port Impedance         384.772251273903 0.211136795970924 384.780284164901 0.211153267642032 
115.1                          0.906626191036158 115.182904275812 0.000163048992787148 -138.062885734143 0.000163048992787148 -138.062885734143 0.90683934251165 114.924003432046 
! Gamma         0.737994310396087 1456.96693107513 0.73799260985588 1456.96689206011 
! Port Impedance         384.188682437264 0.210113046167176 384.196703197471 0.210129477027376 
115.2                          0.907472407445629 104.43380725693  0.000146324277972927 -143.107714828954 0.000146324277972927 -143.107714828954 0.907601047807215 104.195829576171 
! Gamma         0.736734429055288 1460.43491965162 0.736732726218805 1460.434880722   
! Port Impedance         383.609268694514 0.209100595591175 383.617277410071 0.209116986014743 
115.3                          0.908194370405966 93.6998283723727 0.000132802754926974 -146.344633277429 0.000132802754926974 -146.344633277429 0.90828182777337 93.476175750496  
! Gamma         0.735483552461146 1463.89769355469 0.735481847332089 1463.89765470991 
! Port Impedance         383.033964512103 0.208099277886184 383.04196126821  0.208115628242459 
115.4                          0.90882110648621 82.9808020162669 0.00012386298147737 -147.779972552328 0.000123862981477371 -147.779972552329 0.908882023923203 82.7651372517026 
! Gamma         0.734241584613508 1467.35528970173 0.734239877195566 1467.35525094127 
! Port Impedance         382.462725039394 0.207108929843506 382.470709920324 0.207125240496979 
115.5                          0.909377908586262 72.2762449833371 0.000120807782812613 -148.060373500118 0.000120807782812613 -148.060373500116 0.909401804440192 72.062748455544  
! Gamma         0.733008430930451 1470.80774460807 0.733006721227299 1470.80770593139 
! Port Impedance         381.895506095634 0.20612939132989 381.903479184746 0.206145662640288 
115.6                          0.909886378836624 61.5854098001631 0.000124268495121988 -148.485589610579 0.000124268495121987 -148.485589610577 0.909841019832193 61.3689840328072 
! Gamma         0.731783998221479 1474.25509439295 0.731782286236775 1474.25505579952 
! Port Impedance         381.332264157215 0.205160505216903 381.340225536969 0.205176737539271 
115.7                          0.910364429849648 50.9073180067739 0.000133824126749167 -150.400916035259 0.000133824126749167 -150.400916035259 0.910199042221366 50.6837588375138 
! Gamma         0.730568194661323 1477.69737478537 0.730566480398714 1477.69733627468 
! Port Impedance         380.772956345241 0.204202117312214 380.780906097211 0.204218310997003 
115.8                          0.910826155252194 40.2407787825689 0.000148258927031885 -154.542660286926 0.000148258927031887 -154.542660286927 0.910474572278978 40.0069263447916 
! Gamma         0.729360929764357 1481.13462112992 0.72935921322747 1481.13458270144 
! Port Impedance         380.217540413373 0.203254076292734 380.225478618257 0.203270231685872 
115.9                          0.911281495313608 29.5843981451855 0.000166134534731852 -160.988122282075 0.000166134534731852 -160.988122282075 0.910665392371342 29.3382755586834 
! Gamma         0.728162114359583 1484.56686839238 0.72816039555203 1484.56683004561 
! Port Impedance         379.665974735953 0.202316233639539 379.67390147359  0.202332351082517 
116                            0.911735627127711 18.9365844003216 0.000186160700133015 -169.48120190001 0.000186160700133009 -169.481201900007 0.910768035678613 18.6775264122359 
! Gamma         0.726971660566195 1487.99415116531 0.726969939491572 1487.99411289974 
! Port Impedance         379.118218296402 0.201388443574541 379.126133645783 0.201404523404483 
116.1                          0.91218800737703 8.29555693198663 0.00020728416083789 -179.703870763666 0.000207284160837893 -179.703870763665 0.910777327009104 8.02432392617292 
! Gamma         0.725789481769685 1491.41650367349 0.725787758431572 1491.41646548862 
! Port Impedance         378.57423067588  0.200470562998838 378.582134715158 0.200486605548582 
116.2                          0.912630997547205 -2.34063181759335 0.000228644703992408 168.605059434667 0.000228644703992408 168.605059434667 0.910685728727792 -2.62176805511151 
! Gamma         0.724615492598502 1494.83395977927 0.724613767000459 1494.8339216746  
! Port Impedance         378.033972042198 0.1995624514327  378.041864848705 0.199578457030867 
116.3                          0.913048020352406 -12.9740468016305 0.000249508873552829 155.620487059698 0.000249508873552826 155.620487059699 0.910482389861522 -13.2612715220248 
! Gamma         0.723449608901222 1498.24655298781 0.723447881046788 1498.24651496286 
! Port Impedance         377.497403138986 0.198663970957139 377.505284789242 0.198679939928206 
116.4                          0.913411256160567 -23.6067722929694 0.00026922274557925 141.433058964047 0.00026922274557925 141.433058964047 0.91015174074152 -23.8947927210009 
! Gamma         0.722291747724232 1501.65431645225 0.722290017616923 1501.65427850652 
! Port Impedance         376.964485275103 0.197774986157009 376.972355844825 0.197790918821378 
116.5                          0.913679029567123 -34.2407359945388 0.000287195638725866 126.055997348882 0.000287195638725863 126.055997348883 0.90967138950775 -34.5230041309611 
! Gamma         0.721141827289914 1505.05728297875 0.721140094933212 1505.05724511177 
! Port Impedance         376.435180314277 0.196895364065604 376.443039878395 0.196911260739674 
116.6                          0.913793318665342 -44.8774180307233 0.000302923368822093 109.42739727305  0.000302923368822092 109.427397273051 0.909008950737189 -45.1465878218153 
! Gamma         0.719999766975308 1508.45548503148 0.719998032372638 1508.45544724277 
! Port Impedance         375.909450664982 0.196024974110694 375.917299297649 0.196040835106923 
116.7                          0.913678311993319 -55.5174055774971 0.00031606911266359 91.4056568026287 0.000316069112663592 91.4056568026288 0.908117276817558 -55.7660922490254 
! Gamma         0.718865487291249 1511.84895473747 0.718863750445908 1511.84891702656 
! Port Impedance         375.38725927054  0.195163688061962 375.395097045142 0.195179513688936 
116.8                          0.91324167003231 -66.159770428922 0.000326638684754291 71.759493622139  0.000326638684754292 71.7594936221395 0.906927453233634 -66.3815990992081 
! Gamma         0.717738909861962 1515.23772389142 0.717737170776792 1515.23768625784 
! Port Impedance         374.868569599434 0.194311379979802 374.876396588601 0.1943271705423  
116.9                          0.91238098249801 -76.8013025160244 0.000335314767540249 50.1608026298555 0.000335314767540249 50.1608026298555 0.905339231579886 -76.9919797396515 
! Gamma         0.716619957405105 1518.62182396037 0.716618216079717 1518.62178640367 
! Port Impedance         374.353345635841 0.193467926165439 374.361161911459 0.193483681964494 
117                            0.91099832340244 -87.4357504694458 0.00034403884140656 26.2064901536251 0.00034403884140656 26.2064901536251 0.903210636680868 -87.5932891431209 
! Gamma         0.715508553712241 1522.00128608835 0.715506810074955 1522.00124860804 
! Port Impedance         373.841551870373 0.192633205112321 373.849357503591 0.192648926445283 
117.1                          0.909024686381397 -98.053401250577 0.000356883583520711 -0.469068211615778 0.000356883583520714 -0.469068211616236 0.900356423288541 -98.175472739727 
! Gamma         0.714404623629745 1525.37614110091 0.71440287784658 1525.37610369654 
! Port Impedance         373.333153291009 0.191807097458759 373.340948352255 0.191822784619355 
117.2                          0.906452053338992 -108.641501676842 0.000380962123696543 -29.9112194797457 0.000380962123696546 -29.9112194797448 0.896589179962831 -108.716399308387 
! Gamma         0.713308093040105 1528.74641950953 0.71330634503538 1528.74638218069 
! Port Impedance         372.828115374239 0.19098948594177 372.835899933225 0.191005139220163 
117.3                          0.903363764391217 -119.18599724989 0.000426475390982066 -61.4713882499015 0.000426475390982063 -61.4713882499012 0.891889020583166 -119.174440677359 
! Gamma         0.71221888884363 1532.11215151605 0.712217138617956 1532.11211426228 
! Port Impedance         372.326404076389 0.190180255352093 372.334178202122 0.19019587503494 
117.4                          0.899947234697888 -129.674612232506 0.000504908263373439 -93.8154730980367 0.000504908263373439 -93.8154730980367 0.886808113013001 -129.491699367911 
! Gamma         0.711136938940469 1535.47336701694 0.711135186497022 1535.4733298378  
! Port Impedance         371.827985825135 0.189379292490334 371.835749585929 0.189394878860844 
117.5                          0.896474258780666 -140.100441723645 0.000626308788743719 -125.631634881038 0.000626308788743719 -125.631634881038 0.882862856869728 -139.637884976273 
! Gamma         0.710062172212558 1538.83009560751 0.710060417555622 1538.83005850256 
! Port Impedance         371.332827511205 0.188586486124226 371.340580974687 0.188602039462212 
117.6                          0.893248028365806 -150.464515481383 0.00079807186342596 -156.323407664277 0.00079807186342596 -156.323407664277 0.881823711694036 -149.685965727056 
! Gamma         0.708994518500829 1542.18236658606 0.708992761641876 1542.18232955487 
! Port Impedance         370.840896480248 0.187801726946946 370.848639713371 0.187817247528883 
117.7                          0.890535817946646 -160.77599570912 0.00102532035863087 174.005508222431 0.00102532035863087 174.005508222432 0.88384698207618 -159.787746295438 
! Gamma         0.707933908615427 1545.53020895796 0.7079321495524  1545.53017200012 
! Port Impedance         370.352160524887 0.187024907536483 370.359893593937 0.187040395635558 
117.8                          0.888515780238415 -171.049892381177 0.00131089520053836 144.94108767082  0.00131089520053837 144.94108767082  0.887333389722218 -170.031923562666 
! Gamma         0.706880274294219 1548.87365143968 0.706878513015926 1548.87361455475 
! Port Impedance         369.866587876932 0.186255922316016 369.874310847538 0.186271378202169 
117.9                          0.887256588325447 178.696507013163 0.00165395068400005 116.059910857143 0.00165395068400006 116.059910857143 0.890724754567558 179.597376129106 
! Gamma         0.705833548159487 1552.21272246267 0.705831784677237 1552.21268565023 