! Touchstone file exported from HFSS 2020.2.4
!        File:           D:/Project/Deacon_v3/240214_MPW12_Gap_WG_Tester_D2A/Gap_WG_Tester_D2.aedt
!        Generated:      11:44:19 AM  Mar 20, 2025
!        Design:         Line
!        Project:        Gap_WG_Tester_D2
!        Setup:          Setup1
!        Solution:       Sweep
!
! Variables:
!        C_G = 20um
!        C_H = 0.5mm
!        Deembedding = 25.4mm
!        E_P = 133um
!        S_H1 = 260um
!        S_H2 = 13um
!        S_H3 = 8um
!        S_X = 30mm
!        S_X0 = 15mm
!        S_Y = 15mm
!        S_Y0 = 7.5mm
!        TL_G = 40um
!        TL_L = 12.1467848662796mm
!        TL_W = 240um
!        TR_L = 706.43026744077um
!        TR_L2 = 226.8691264263um
!        TR_L3 = 373.29154801399um
!        TR_P = 109.62537243288um
!        TR_W = 1597.2041747747um
!        TR_W2 = 282.226541747um
!        V_PBO = 20um
!        V_Pad = 40um
!        V_R = 20um
!        WG_L = 0.8255mm
!        WG_W = 1.651mm
!        th = 5um
!
!Data is not renormalized
# GHZ S MA
! Terminal data exported
! Port[1] = 1
! Port[2] = 2
110                            0.882056925424389 -40.5678323248997 0.000477695216407593 -173.605903323532 0.000477695216407593 -173.605903323532 0.885367317098642 -40.5125677730018 
! Gamma         0.817004378190475 1272.1665648841  0.817072275886824 1272.16783454949 
! Port Impedance         420.572649118009 0.281640651016588 420.486770213062 0.281568221595422 
110.1                          0.882456699310089 -52.1072092872098 0.00049233063904287 175.478531530012 0.00049233063904287 175.478531530012 0.885817388509212 -52.0674364539428 
! Gamma         0.815113363643344 1275.96127613734 0.815181438423504 1275.96254247645 
! Port Impedance         419.702949334576 0.279740068601793 419.617245313798 0.279668055987277 
110.2                          0.882844726028544 -63.6269212113379 0.000507746087735247 164.712205371404 0.000507746087735247 164.712205371404 0.886251813534388 -63.6022541881884 
! Gamma         0.813239035241625 1279.74816821488 0.813307286534688 1279.74943125522 
! Port Impedance         418.840966172826 0.277865588790065 418.755435489367 0.2777939870382  
110.3                          0.883220731131666 -75.1271800302414 0.000523913200926231 154.104185762115 0.000523913200926231 154.104185762115 0.886670278417326 -75.117221841467 
! Gamma         0.811381166711834 1283.52731032453 0.811449593952259 1283.52857009323 
! Port Impedance         417.98659303827  0.276016722911304 417.901234167914 0.275945526248729 
110.4                          0.883584437834929 -86.6081944688172 0.000540782908575229 143.663493625573 0.000540782908575229 143.663493625573 0.887072468388092 -86.6125369770392 
! Gamma         0.809539536037398 1287.29877072059 0.809608138664925 1287.30002724442 
! Port Impedance         417.139725357959 0.274192994031617 417.054536798549 0.274122196844755 
110.5                          0.883935567179379 -98.0701700795037 0.000558280479474791 133.398902017195 0.000558280479474791 133.398902017195 0.887458067870113 -98.088393897556 
! Gamma         0.80771392535629 1291.0626167219  0.807782702815854 1291.06387002728 
! Port Impedance         416.300260531668 0.27239393660987 416.215240802555 0.27232353343504 
110.6                          0.884273838203101 -109.513309276288 0.000576300090453506 123.318667406297 0.000576300090453506 123.318667406297 0.887826760693729 -109.54498368573 
! Gamma         0.805904120861655 1294.81891472942 0.805973072603302 1294.82016484241 
! Port Impedance         415.468097884521 0.270619096166099 415.383245526039 0.270549081680503 
110.7                          0.884598968122952 -120.93781136717 0.000594699205870481 113.430182351025 0.000594699205870481 113.430182351025 0.888178230317451 -120.982494243911 
! Gamma         0.804109912705324 1298.56773024344 0.804179038184131 1298.56897718976 
! Port Impedance         414.643138620989 0.268868028961296 414.558452193956 0.268798397974798 
110.8                          0.884910672526599 -132.343872585103 0.0006132932595055 103.739541997607 0.0006132932595055 103.739541997607 0.888512160057288 -132.401110332614 
! Gamma         0.802331094904121 1302.30912788033 0.802400393580113 1302.31037168535 
! Port Impedance         413.825285780228 0.267140301688134 413.740763865463 0.267071049135756 
110.9                          0.885208665575572 -143.731686117458 0.000631851381278936 94.2510240147011 0.000631851381278936 94.2510240147011 0.888828233322551 -143.801013608025 
! Gamma         0.800567465248859 1306.0431713889  0.800636936586935 1306.04441207769 
! Port Impedance         413.014444192696 0.26543549117218 412.930085390565 0.265366612107259 
111                            0.885492660218876 -155.101442134056 0.00065009417939394 84.9664934271973 0.000650094179393939 84.9664934271973 0.889126133860426 -155.18238265856 
! Gamma         0.798818825215949 1309.76992366642 0.798888468685804 1309.77116126368 
! Port Impedance         412.210520438027 0.263753184083207 412.126323368002 0.263684673671136 
111.1                          0.885762368418142 -166.453327813743 0.000667694813604387 75.8847608408733 0.000667694813604387 75.8847608408733 0.889405546006912 -166.545393040512 
! Gamma         0.797084979881519 1313.4894467742  0.797154794957569 1313.49068130434 
! Port Impedance         411.413422804098 0.262092976656197 411.329386104334 0.262024830168712 
111.2                          0.886017501384646 -177.787527369635 0.000684284679223139 67.0009439968667 0.000684284679223139 67.0009439968667 0.889666154945795 -177.890217312854 
! Gamma         0.795365737837969 1317.20180195285 0.795435723999281 1317.20303343995 
! Port Impedance         410.623061247265 0.26045447442167 410.539183574196 0.260386687231616 
111.3                          0.886257769827233 170.895777927046 0.000699464838145481 58.3059056446726 0.000699464838145481 58.3059056446726 0.889907646974683 170.782974928799 
! Gamma         0.793660911112875 1320.90704963716 0.793731067843091 1320.90827810501 
! Port Impedance         409.839347353714 0.258837291944968 409.755627381664 0.258769859521514 
111.4                          0.886482884213301 159.596409724408 0.000712823763297856 49.7858599431811 0.000712823763297856 49.7858599431811 0.890129709778073 159.474017018962 
! Gamma         0.79197031509017 1324.60524947067 0.792040641877443 1324.60647494274 
! Port Impedance         409.062194301908 0.257241052574166 408.978630722719 0.257173970478415 
111.5                          0.886692555041592 148.314192568683 0.000723960957628656 41.4222472844422 0.000723960957628657 41.4222472844422 0.890332032707748 148.182745189789 
! Gamma         0.790293768433519 1328.29646031987 0.790364264770442 1328.29768281933 
! Port Impedance         408.29151682608  0.255665388196268 408.208108348747 0.255598652077231 
111.6                          0.886886493127568 137.048953884245 0.000732514666652548 33.1919654398977 0.000732514666652548 33.1919654398977 0.890514307069701 136.908998539258 
! Gamma         0.788631093011825 1331.98074028809 0.788701758395364 1331.98195983783 
! Port Impedance         407.527231180739 0.254109939001383 407.443976531068 0.25404354459228 
111.7                          0.887064409901837 125.800523954892 0.000738190519157734 25.0680081116727 0.000738190519157734 25.0680081116727 0.890676226418028 125.652618999956 
! Gamma         0.786982113826788 1335.65814672908 0.787052947758218 1335.6593633517  
! Port Impedance         406.769255106163 0.252574353254571 406.686153026433 0.252508296369432 
111.8                          0.887226017721423 114.568735906386 0.000740786957251301 17.0205021920686 0.000740786957251301 17.0205021920686 0.890817486855216 114.413451308501 
! Gamma         0.785346658942462 1339.32873626026 0.785417660927304 1339.32994997807 
! Port Impedance         406.017507794843 0.251058287075088 405.934557043483 0.250992563605619 
111.9                          0.887371030194578 103.353425690132 0.00074021321265586 9.01806347646725 0.00074021321265586 9.01806347646725 0.890937787338799 103.191342975438 
! Gamma         0.783724559416725 1342.99256477571 0.783795728964683 1342.99377561075 
! Port Impedance         405.271909858843 0.249561404222728 405.18910921012  0.249496010135425 
112                            0.887499162518306 92.1544320681131 0.000736496586858463 1.0293260009194  0.000736496586858463 1.02932600091939 0.891036829993924 91.9861442557104 
! Gamma         0.782115649234626 1346.64968745882 0.782186985859525 1346.65089543285 
! Port Impedance         404.532383298053 0.248083375891032 404.449731541771 0.248018307224507 
112.1                          0.887610131830744 80.9715965989436 0.000729777734873927 -6.97553747450039 0.000729777734873927 -6.97553747450039 0.891114320432071 80.7977081195217 
! Gamma         0.780519765243533 1350.30015879471 0.780591268463259 1350.30136392922 
! Port Impedance         403.798851469304 0.246623880507073 403.716347410508 0.246559133369588 
112.2                          0.887703657576216 69.8047636250824 0.000720294980865108 -15.0234844284774 0.000720294980865108 -15.0234844284774 0.891169968074768 69.6258902236509 
! Gamma         0.778936747090017 1353.94403258232 0.779008416426464 1353.94523489855 
! Port Impedance         403.071239056317 0.245182603537611 402.988881515013 0.245118174104786 
112.3                          0.887779461884971 58.6537802612102 0.000708360685995672 -23.1376007968083 0.000708360685995672 -23.1376007968083 0.891203486483302 58.4705488831393 
! Gamma         0.777366437158453 1357.58136194629 0.777438272137457 1357.58256146522 
! Port Impedance         402.349472040456 0.243759237301357 402.267259851336 0.243695121814043 
112.4                          0.887837269966819 47.5184963836766 0.000694333776425756 -31.3365021631538 0.000694333776425756 -31.3365021631538 0.891214593692458 47.3315450432974 
! Gamma         0.775808680511227 1361.21219934853 0.775880680662518 1361.21339609087 
! Port Impedance         401.633477672271 0.242353480787145 401.551409684447 0.242289675549442 
112.5                          0.887876810518943 36.398764621122  0.00067859253684666 -39.6341404181698 0.00067859253684666 -39.6341404181698 0.89120301254962 36.2087422520386 
! Gamma         0.77426332483056 1364.83659659957 0.774335489687701 1364.83779058579 
! Port Impedance         400.923184443793 0.240965039477781 400.841259520536 0.240901540855195 
112.6                          0.887897816148337 25.2944403461624 0.000661510894408961 -48.0399603171808 0.000661510894408961 -48.0399603171808 0.891168471057817 25.102006632445  
! Gamma         0.772730220361847 1368.45460486962 0.772802549462184 1368.45579611995 
! Port Impedance         400.218522061564 0.239593625179381 400.136739080055 0.239530429597092 
112.7                          0.887900023808358 14.2053816681854 0.000643440099406233 -56.5593158013225 0.000643440099406233 -56.5593158013225 0.891110702722362 14.0112068555672 
! Gamma         0.7712092198585  1372.06627469946 0.77128171274311 1372.06746323388 
! Port Impedance         399.519421420377 0.238238955855982 399.437779271463 0.238176059797227 
112.8                          0.887883175250057 3.13144942725785 0.000624696398008841 -65.19404597628  0.000624696398008841 -65.19404597628  0.891029446901487 2.93621411341565 
! Gamma         0.76970017852823 1375.67165601104 0.769772834741864 1375.67284184929 
! Port Impedance         398.825814577708 0.236900755469261 398.744312165665 0.236838155473816 
112.9                          0.88784701748801 -7.92749281087409 0.00060555428575812 -73.9431196871046 0.00060555428575812 -73.9431196871046 0.890924449159593 -8.12309790789641 
! Gamma         0.768202953980723 1379.27079811784 0.768275773071762 1379.27198127943 
! Port Impedance         398.137634728817 0.23557875382316 398.056270971117 0.235516446485907 
113                            0.887791303280587 -18.9715787586755 0.000586244336544676 -82.8032774634785 0.000586244336544676 -82.8032774634785 0.890795461623018 -19.1668530549037 
! Gamma         0.766717406176684 1382.86374973509 0.766790387697085 1382.8649302393  
! Port Impedance         397.454816182491 0.234272686413258 397.373590009578 0.234210668382835 
113.1                          0.887715791625011 -30.0009394096143 0.000566954383160122 -91.7696226860812 0.000566954383160122 -91.7696226860812 0.890642243338479 -30.1951727334502 
! Gamma         0.765243397378181 1386.45055898967 0.765316540883432 1386.45173685555 
! Port Impedance         396.777294337414 0.232982294280713 396.696204692487 0.232920562258237 
113.2                          0.887620248266725 -41.0157030397933 0.000547832872917017 -100.836134950879 0.000547832872917017 -100.836134950879 0.890464560632614 -41.2081759352861 
! Gamma         0.763780792100282 1390.03127342986 0.76385409714935 1390.03244867624 
! Port Impedance         396.105005659159 0.231707323870625 396.024051497954 0.231645874608482 
113.3                          0.88750444622343 -52.0159952084716 0.000528993415661607 -109.996095182487 0.000528993415661607 -109.996095182487 0.890262187473056 -52.2059792646598 
! Gamma         0.76232945706391 1393.60594003489 0.762402923219199 1393.60711268039 
! Port Impedance         395.437887657749 0.230447526894654 395.357067948337 0.230386357195345 
113.4                          0.887368166323453 -63.0019387574016 0.000510519786425303 -119.242423464144 0.000510519786425303 -119.242423464144 0.890034905829859 -63.1886969649217 
! Gamma         0.760889261149912 1397.17460522427 0.760962887977213 1397.17577528728 
! Port Impedance         394.775878865809 0.22920266019776 394.695192588386 0.229141766912805 
113.5                          0.887211197758229 -73.9736538089716 0.00049247088027011 -128.567937385274 0.00049247088027011 -128.567937385274 0.889782506037486 -74.156440945147 
! Gamma         0.759460075354282 1400.73731486692 0.759533862422732 1400.73848236563 
! Port Impedance         394.118918817261 0.227972485628905 394.038364963955 0.227911865657796 
113.6                          0.887033338649196 -84.9312577631413 0.000474885312456559 -137.965542025087 0.000474885312456559 -137.965542025087 0.88950478715604 -85.1093208068515 
! Gamma         0.758041772744522 1404.29411429011 0.758115719626556 1404.29527924249 
! Port Impedance         393.466948026566 0.226756769915599 393.38652560124  0.226696420204798 
113.7                          0.886834396628148 -95.874865293073 0.000457785504011465 -147.428363607508 0.000457785504011465 -147.428363607508 0.889201557331744 -96.0474438707659 
! Gamma         0.756634228417085 1407.84504828825 0.756708334688397 1407.84621071207 
! Port Impedance         392.81990796848  0.225555284542146 392.739615986546 0.225495202084122 
113.8                          0.886614189431759 -106.804588339498 0.000441181194254092 -156.949838320197 0.000441181194254092 -156.949838320197 0.888872634155785 -106.970915203771 
! Gamma         0.755237319455899 1411.39016113144 0.755311584695396 1411.39132104427 
! Port Impedance         392.177741058327 0.224367805631474 392.097578546557 0.224307987463781 
113.9                          0.886372545509148 -117.720536103686 0.000425072386265755 -166.523766485656 0.000425072386265755 -166.523766485656 0.88851784502145 -117.879837645938 
! Gamma         0.753850924891903 1414.92949657391 0.753925348681667 1414.93065399312 
! Port Impedance         391.540390632753 0.223194113830418 391.460356629103 0.223134557034803 
114                            0.886109304642689 -128.622815038989 0.000409451768176642 -176.144340672269 0.000409451768176642 -176.144340672269 0.888137027478124 -128.774311837758 
! Gamma         0.752474925663602 1418.46309786224 0.752549507588845 1418.46425280501 
! Port Impedance         390.90780093097  0.222033994198345 390.827894484399 0.221974695899892 
114.1                          0.885824318581187 -139.511528840914 0.000394306671020352 174.193845279931 0.000394306671020352 174.193845279931 0.88773002958237 -139.654436247548 
! Gamma         0.751109204578582 1421.99100774342 0.751183944227611 1421.99216022673 
! Port Impedance         390.279917076453 0.220887236099013 390.200137246753 0.22082819346531 
114.2                          0.885517451686227 -150.386778435582 0.000379620629533535 164.495800818095 0.000379620629533535 164.495800818095 0.887296710245301 -150.520307199061 
! Gamma         0.749753646275979 1425.51326847277 0.749828543240152 1425.51441851341 
! Port Impedance         389.656685059093 0.219753633095547 389.577030916719 0.219694843335885 
114.3                          0.885188581588973 -161.248661966547 0.000365374610597069 154.766152588424 0.000365374610597069 154.766152588424 0.88683693957535 -161.372018899329 
! Gamma         0.748408137189856 1429.02992182168 0.748483191063547 1429.03106943625 
! Port Impedance         389.038051717789 0.218632982848434 388.958522343692 0.218574443213026 
114.4                          0.884837599859619 -172.09727477985 0.000351547968420333 145.009164519197 0.000351547968420332 145.009164519197 0.886350599216106 -172.209663466751 
! Gamma         0.747072565513477 1432.5410090852  0.747147775894033 1432.54215429013 
! Port Impedance         388.423964723455 0.217525087016438 388.344559208923 0.217466794795666 
114.5                          0.884464412686339 177.067290592828 0.000338119178251191 135.228761736715 0.000338119178251191 135.228761736715 0.88583758267869 176.966669040587 
! Gamma         0.745746821164441 1436.04657108948 0.745822187652155 1436.047713901   
! Port Impedance         387.814372562456 0.216429751160338 387.735090008951 0.216371703684015 
114.6                          0.884068941565018 166.244944453005 0.000325066392691619 125.428556639807 0.000325066392691619 125.428556639807 0.885297795667854 166.156890596277 
! Gamma         0.744430795750666 1439.54664819904 0.744506317948729 1439.54778863323 
! Port Impedance         387.209224520425 0.21534678464939 387.130064039432 0.215288979286043 
114.7                          0.883651123997568 155.435599956375 0.00031236785736184 115.611875973483 0.00031236785736184 115.611875973483 0.884731156401567 155.36091517671  
! Gamma         0.743124382537176 1443.04128032398 0.743200060051649 1443.04241839672 
! Port Impedance         386.60847066649  0.214276000570438 386.529431379361 0.214218434726614 
114.8                          0.883210914199003 144.639173136105 0.000300002216061007 105.781788137861 0.000300002216061007 105.781788137861 0.884137595923085 144.578658731884 
! Gamma         0.741827476413694 1446.5305069269  0.741903308853468 1446.53164265391 
! Port Impedance         386.01206183786  0.213217215639573 385.933142875666 0.213159886759156 
114.9                          0.88274828381161 133.855582928571 0.000287948729861605 95.94113027178   0.000287948729861605 95.9411302717799 0.883517058405355 133.810039155911 
! Gamma         0.740539973862998 1450.01436702984 0.740615960839763 1450.01550042666 
! Port Impedance         385.419949624792 0.212170250116268 385.341150128178 0.212113155679815 
115                            0.882263222625275 123.084751201797 0.000276187429756079 86.0925348849197 0.000276187429756079 86.0925348849197 0.882869501446806 123.054976257222 
! Gamma         0.739261772930032 1453.49289922097 0.739337914058242 1453.49403030298 
! Port Impedance         384.832086355911 0.211134927719907 384.75340547495  0.211078065243998 
115.1                          0.881755739302961 112.3266027867   0.000264699218484133 76.2384559974844 0.000264699218484133 76.2384559974844 0.882194896358485 112.313391728438 
! Gamma         0.737992773191741 1456.96614166122 0.738069068088579 1456.96727044363 
! Port Impedance         384.248425083878 0.210111075548624 384.16986197793  0.210054442585228 
115.2                          0.881225862109976 101.581065511479 0.000253465933911645 66.3811949001177 0.000253465933911645 66.3811949001177 0.881493228441726 101.585209115949 
! Gamma         0.736732875727619 1460.43413209073 0.736809324012968 1460.43525858859 
! Port Impedance         383.668919571391 0.209098524000392 383.590473408969 0.209042118136244 
115.3                          0.880673639644713 90.8480702393038 0.000242470383701655 56.5229257835081 0.000242470383701655 56.5229257835081 0.880764497255479 90.8703537891472 
! Gamma         0.735481983090946 1463.89690783524 0.735558584387352 1463.89803206344 
! Port Impedance         383.093524277525 0.208097106696274 383.015194236155 0.208040925552271 
115.4                          0.880099141570303 80.12755090962   0.000231696358913661 46.6657216222444 0.000231696358913661 46.6657216222444 0.880008716873835 80.1687529093599 
! Gamma         0.73423999928069 1467.35450581227 0.734316753213334 1467.35562778554 
! Port Impedance         382.522194344379 0.20710666040579 382.44397961047  0.207050701636389 
115.5                          0.879502459344328 69.4194445833682 0.00022112863249499 36.8115808457267 0.00022112863249499 36.8115808457267 0.879225916132151 69.4803353984611 
! Gamma         0.733006829714064 1470.80696253725 0.733083735910729 1470.80808227018 
! Port Impedance         381.954885584044 0.2061270249743  381.876785352756 0.206071286266938 
115.6                          0.878883706944533 58.7236914923832 0.000210752947310038 26.9624555083515 0.000210752947310038 26.9624555083515 0.878416138862248 58.8050319071635 
! Gamma         0.731782381199719 1474.25431412955 0.731859439290762 1474.25543163655 
! Port Impedance         381.391554465865 0.205158043252381 381.313567940982 0.205102522326901 
115.7                          0.878243021588123 48.0402350933906 0.000200555997320474 17.1202819046302 0.000200555997320474 17.1202819046302 0.877579444115938 48.1427747830057 
! Gamma         0.730566561911551 1477.69659631829 0.73064377152987 1477.69771161364 
! Port Impedance         380.832158104003 0.204199561027097 380.754284497807 0.204144255635186 
115.8                          0.877580564442057 37.3690221269016 0.000190525404727792 7.28701489376614 0.000190525404727791 7.28701489376614 0.876715906375882 37.4934980380639 
! Gamma         0.729359281363107 1481.13384444817 0.729436642144112 1481.13495754599 
! Port Impedance         380.276654245278 0.203251426955129 380.198892778427 0.203196334879769 
115.9                          0.876896521320218 26.7100026814705 0.000180649695274652 -2.53533235096479 0.000180649695274652 -2.53533235096479 0.875825615755001 26.8571373163546 
! Gamma         0.728160450382576 1484.56609348508 0.728237961964162 1484.56720439935 
! Port Impedance         379.725001257296 0.202313492497696 379.647351158699 0.202258611552623 
116                            0.87619110336474 16.0631302636722 0.000170918273438438 -12.3446407995812 0.000170918273438438 -12.3446407995812 0.874908678182241 16.2336298609929 
! Gamma         0.726969981088352 1487.99337802169 0.727047643110867 1487.99448676624 
! Port Impedance         379.177158116837 0.201385611857218 379.099618623542 0.201330939886391 
116.1                          0.875464547706907 5.42836187433776 0.000161321398914851 -22.1386268948485 0.000161321398914851 -22.1386268948485 0.873965215575895 5.62291448106693 
! Gamma         0.72578778686514 1491.41573228289 0.725865598971362 1491.41683887142 
! Port Impedance         378.633084398519 0.200467641915657 378.555654755591 0.200413176792738 
116.2                          0.874717118102707 -5.19434190854206 0.000151850165564155 -31.9147679612804 0.000151850165564155 -31.9147679612804 0.872995366003521 -4.97506848167655 
! Gamma         0.724613782340612 1494.83319013115 0.724691744175716 1494.8342945772  
! Port Impedance         378.092740263709 0.1995594421745  378.015419724116 0.199505181802343 
116.3                          0.873949105537925 -15.8050168396599 0.000142496483872187 -41.6702046560138 0.000142496483872187 -41.6702046560138 0.871999283828041 -15.5603771863897 
! Gamma         0.72344788336258 1498.24578507172 0.723525994574114 1498.24688738871 
! Port Impedance         377.556086449685 0.198660874696314 377.478874274187 0.198606817006465 
116.4                          0.873160828796148 -26.4036949084725 0.000133253067968728 -51.4016098893144 0.000133253067968728 -51.4016098893144 0.870977139840693 -26.1330683268264 
! Gamma         0.722290006976678 1501.65355025785 0.722368267214536 1501.65465045905 
! Port Impedance         377.023084259043 0.197771804047853 376.945979716083 0.197717947000057 
116.5                          0.872352634983711 -36.9904042329361 0.000124113428372756 -61.1050079410823 0.000124113428372756 -61.1050079410824 0.869929121379839 -36.6931971652285 
! Gamma         0.721140071404546 1505.05651849581 0.721218480320941 1505.05761659437 
! Port Impedance         376.493695549344 0.196892097244639 376.416697914935 0.196838438826355 
116.6                          0.87152490000243 -47.5651689442965 0.000115071871956039 -70.775518049955 0.000115071871956039 -70.775518049955 0.868855432435591 -47.2408175662859 
! Gamma         0.719997996022494 1508.45472224986 0.720076553271933 1508.45581825879 
! Port Impedance         375.967882722982 0.196021623696994 375.890991280604 0.195968161922924 
116.7                          0.870678028961621 -58.1280090622912 0.000106123511252152 -80.406980603713 0.000106123511252152 -80.406980603713 0.867756293740557 -57.7759820311866 
! Gamma         0.71886370134064 1511.84819364715 0.718942406579896 1511.84928757931 
! Port Impedance         375.445608717284 0.195160255157475 375.368822757778 0.195106988069097 
116.8                          0.869812456519279 -68.6789403601656 9.726428642583E-05 -89.9913954939229 9.726428642583E-05 -89.9913954939229 0.866631942846588 -68.2987417316786 
! Gamma         0.717737108982498 1515.23696448245 0.717815961870589 1515.23805635061 
! Port Impedance         374.926836994827 0.194307865669664 374.850155816291 0.194254791334773 
116.9                          0.868928647140437 -79.2179742188034 8.84910054487043E-05 -99.5180496262045 8.84910054487043E-05 -99.5180496262045 0.865482634186428 -78.8091465440886 
! Gamma         0.716618141665028 1518.62106622292 0.716697141863191 1518.6221560397  
! Port Impedance         374.411531533964 0.193464331518278 374.334954441656 0.19341144803054 
117                            0.868027095259358 -89.7451174693831 7.98014123561659E-05 -108.972109310287 7.98014123561659E-05 -108.972109310287 0.864308639121973 -89.3072450832586 
! Gamma         0.71550672317911 1522.00053001269 0.715585870350773 1522.00161779059 
! Port Impedance         373.899656819564 0.192629531180561 373.823183125799 0.192576836659073 
117.1                          0.867108325330977 -100.260372223867 7.11943022754216E-05 -118.332247517676 7.11943022754215E-05 -118.332247517676 0.863110245977221 -99.793084736282 
! Gamma         0.714402778370444 1525.37538667739 0.714482072181208 1525.37647242877 
! Port Impedance         373.391177833949 0.191803345278916 373.314806858    0.191750837867772 
117.2                          0.866172891753827 -110.763735692755 6.26697210190387E-05 -127.566430836469 6.26697210190387E-05 -127.566430836469 0.861887760057146 -110.266711696016 
! Gamma         0.713306233120865 1528.7456667286  0.713385673238477 1528.74675046573 
! Port Impedance         372.886060048027 0.190985656534744 372.809791116034 0.190933334402611 
117.3                          0.865221378646004 -121.255199989522 5.42293317242699E-05 -136.623951867644 5.42293317242699E-05 -136.623951867644 0.860641503651616 -120.728170994209 
! Gamma         0.712217014330064 1532.11140036826 0.712296600424393 1532.11248210326 
! Port Impedance         372.384269412623 0.190176349723449 372.308101857494 0.190124211063152 
117.4                          0.864254399451595 -131.73475192126 4.58771459046031E-05 -145.419130409781 4.58771459046031E-05 -145.419130409781 0.859371816024525 -131.177506534158 
! Gamma         0.711135049897694 1535.47261749291 0.711214781640712 1535.4736972378  
! Port Impedance         371.885772349988 0.189375311630588 371.809705511311 0.1893233546587  
117.5                          0.863272596353995 -142.202372765132 3.76211492412622E-05 -153.794432722402 3.76211492412622E-05 -153.794432722402 0.858079053387601 -141.614761122795 
! Gamma         0.710060268705865 1538.82934769797 0.710140145771622 1538.83042546464 
! Port Impedance         371.3905357455   0.188582431009111 371.314568969446 0.188530653965553 
117.6                          0.862276639468013 -152.658038030393 2.94774822552094E-05 -161.424954540564 2.94774822552094E-05 -161.424954540564 0.856763588859264 -152.039976501968 
! Gamma         0.708992600602012 1542.18162028182 0.709072622666614 1542.18269608206 
! Port Impedance         370.898526939534 0.187797598537688 370.822659578772 0.187745999685335 
117.7                          0.861267225780441 -163.101717205933 2.14836090842356E-05 -167.519026383229 2.14836090842357E-05 -167.519026383229 0.855425812406948 -162.453193378816 
! Gamma         0.707931976382121 1545.52946424994 0.708012143123708 1545.53053809541 
! Port Impedance         370.409713719509 0.187020706780061 370.333945133118 0.186969284404359 
117.8                          0.860245077805088 -173.533373493502 1.37549546892904E-05 -169.564062320562 1.37549546892904E-05 -169.564062320562 0.854066130773105 -172.854451454946 
! Gamma         0.706878327774317 1548.87290831885 0.706958638873042 1548.87398022111 
! Port Impedance         369.924064312106 0.186251650145419 369.848393865486 0.186200402554003 
117.9                          0.859210941914074 176.047036472849 6.90204520250015E-06 -155.159864285442 6.90204520250015E-06 -155.159864285442 0.852684967384402 176.75621054578  
! Gamma         0.705831587422791 1552.2119809201  0.705912042560801 1552.2130508906  